# vtk DataFile Version 3.0
vtk output
ASCII
DATASET UNSTRUCTURED_GRID
POINTS 19980 float
66.4263 -67.0193 41.6219 67.2711 -67.2712 42.0022 66.6762 -67.5734 42.1699 
66.7531 -67.3439 41.3673 67.9898 -67.125 41.4975 67.4815 -67.655 41.216 
67.6932 -67.7994 42.3215 67.1005 -68.1347 41.7117 67.0584 -68.2399 42.7702 
67.0652 -71.942 40.276 67.674 -72.0021 40.2598 67.3521 -72.3718 39.8709 
67.5323 -71.3953 39.9288 68.2748 -71.6559 39.7998 67.7349 -72.0309 39.3959 
68.0442 -70.9399 39.3792 67.2057 -70.4413 40.6542 66.3569 -70.3665 40.5312 
66.7605 -70.055 40.2179 66.6485 -70.8552 40.031 67.0548 -70.3973 39.5571 
68.1024 -69.255 41.612 66.9281 -69.2326 41.6156 67.5471 -68.7431 42.1268 
67.5653 -68.7756 41.1023 66.69 -68.7312 42.2412 67.1446 -69.5013 40.4816 
67.3191 -69.6852 39.8262 66.4326 -70.7725 41.0258 66.5304 -69.9191 41.0308 
66.1886 -70.9831 41.6711 66.8553 -71.398 41.4779 66.759 -70.4102 42.1218 
66.3662 -71.2247 42.0411 67.8597 -71.4934 41.5058 67.4233 -70.5859 42.0831 
67.351 -71.3573 41.9183 66.9174 -69.9326 42.7366 66.8776 -71.1009 42.5196 
63.7339 -70.9768 43.6934 63.678 -70.0698 43.6376 64.26 -70.9521 44.177 
64.2417 -70.5793 43.5857 64.1865 -70.0463 43.2162 64.5041 -70.5872 42.985 
64.7725 -70.2148 43.6959 64.2722 -69.7451 44.1111 64.7587 -70.9047 44.5574 
70.4111 -68.8206 37.8927 70.2562 -69.0495 37.1301 70.7093 -69.3494 37.4875 
69.7874 -69.5241 37.642 70.3304 -69.727 36.9921 69.9807 -68.6728 37.47 
69.4325 -68.6971 37.8682 69.5746 -69.0611 37.1548 68.7048 -71.0783 40.4296 
69.2188 -70.5357 40.4539 69.2821 -70.601 39.8941 68.3517 -70.6513 40.072 
68.8432 -71.2667 39.4106 67.6602 -71.4085 39.0223 68.4379 -71.8014 38.8708 
67.3571 -72.3759 38.8941 67.1669 -72.0268 38.6124 67.7898 -71.9833 38.485 
67.5797 -71.6512 37.9072 67.5894 -70.8346 37.8983 68.2893 -71.2137 37.6574 
67.3747 -71.3544 37.3841 70.8244 -69.2609 38.3718 70.7202 -70.0036 38.3614 
70.1222 -69.7076 38.0693 71.0251 -69.6615 37.8733 70.6523 -70.0009 37.5028 
70.3626 -70.4413 37.8108 70.0192 -70.4338 37.1832 69.1517 -71.5388 38.3973 
69.0834 -70.3706 38.5341 68.5703 -70.8209 38.9397 69.4529 -70.8131 38.8163 
69.7463 -71.0599 37.8677 69.9985 -70.5599 38.372 69.5382 -69.8607 39.017 
70.3236 -70.3289 38.8209 70.0876 -69.5058 38.8597 69.8991 -69.1022 39.4841 
69.9813 -70.3448 39.4297 68.0829 -71.9749 37.2063 68.53 -71.9644 37.9303 
68.7624 -71.9837 36.4584 68.7706 -72.0749 37.1851 68.6009 -71.4527 37.0897 
68.3962 -72.4239 36.7612 68.1949 -72.0583 36.5457 67.7487 -71.6496 36.9873 
68.9201 -70.309 35.6994 69.1016 -70.4663 36.8028 69.1998 -70.7834 36.0905 
69.2337 -70.0301 36.0861 69.8586 -70.1106 40.4337 69.4184 -69.5714 41.0445 
69.2353 -70.5688 40.9463 70.2577 -69.6438 40.8433 69.7184 -70.0299 41.4858 
70.0971 -69.1718 41.4884 70.8167 -69.2469 39.3198 70.5225 -68.6565 38.8736 
70.4696 -68.6773 39.8907 69.4472 -69.7877 39.9008 70.3986 -69.6941 39.8778 
71.0029 -69.6565 38.8217 70.6474 -69.9496 39.1933 62.9814 -28.2538 38.7197 
62.6558 -28.3801 37.9381 63.2224 -27.8777 38.1836 63.2577 -28.8444 38.1791 
65.6642 -25.0321 39.6302 66.3648 -24.6779 39.9963 65.8657 -25.2906 40.2915 
66.2357 -25.5813 39.2788 65.2074 -26.7225 39.9784 64.9797 -27.641 40.151 
64.6317 -27.1513 39.6963 65.9947 -27.0374 39.5648 64.0993 -26.6857 39.1895 
64.3602 -25.944 38.7391 64.8293 -26.594 38.6139 63.819 -26.4432 38.3701 
64.8381 -26.3519 39.3687 65.7503 -29.2728 41.5172 65.9789 -28.4517 41.4665 
64.9373 -28.539 41.0673 65.1349 -28.7875 42.1806 65.79 -27.3076 41.5112 
65.5134 -28.1087 41.8062 65.3091 -27.8545 40.9963 64.9369 -28.5979 41.4777 
66.7719 -28.4907 42.435 65.7757 -28.3629 42.5605 66.0479 -28.8134 43.1864 
66.2652 -27.9447 43.0373 62.8069 -30.4806 40.4203 63.0358 -31.2509 40.6076 
63.6837 -30.8311 40.8366 62.6647 -30.9072 40.9374 63.4682 -31.8127 40.9857 
63.4824 -31.6609 41.6236 63.0505 -31.2618 41.266 64.7409 -30.4674 42.4944 
64.7312 -29.4024 42.5647 64.4232 -30.1335 42.8432 65.1471 -29.8113 43.1901 
64.0359 -29.7678 42.2196 68.9403 -26.4567 38.792 68.9443 -25.4488 38.5518 
69.2689 -26.0129 38.2059 68.5312 -26.0067 38.0944 68.355 -25.5514 38.4729 
68.3596 -24.9208 39.0047 67.8086 -25.397 39.4241 67.8685 -25.1708 38.2191 
69.6549 -25.6374 38.7424 69.0058 -30.1912 40.6549 68.8932 -31.475 40.4703 
68.3259 -30.6364 40.2955 69.386 -30.9027 39.964 68.3279 -31.5135 40.0659 
68.707 -31.1182 39.7439 67.8509 -31.2861 39.5918 69.9133 -29.2168 39.7026 
69.9416 -30.3215 39.4757 69.4604 -29.8724 38.9543 70.4764 -29.7919 39.0443 
66.8297 -28.2036 38.7757 66.8353 -29.3047 38.5065 66.2976 -28.6981 38.2336 
67.3604 -28.6733 38.2294 66.8311 -28.2739 37.9348 67.3669 -27.8656 37.9853 
66.3217 -27.8339 37.9572 68.8685 -28.2942 38.9189 68.9335 -29.3019 38.5239 
69.4403 -28.6928 38.2372 69.3846 -28.84 39.3635 69.9729 -29.3088 38.5388 
68.3966 -28.69 38.238 70.5173 -28.6575 39.2378 70.3656 -28.7317 38.2563 
71.0818 -28.399 38.3317 70.9095 -29.3151 38.5961 70.1326 -27.4666 39.603 
70.0741 -27.2989 38.2709 70.5676 -26.7761 38.7156 70.6859 -27.7088 38.5218 
65.5526 -25.0457 37.0961 66.097 -25.0228 37.135 65.8532 -24.6837 37.3524 
65.7855 -25.4966 37.9224 66.3237 -24.7569 37.8923 66.0895 -25.7434 37.1614 
65.7852 -25.2674 36.767 64.4425 -25.9338 37.9436 64.2794 -26.8624 37.9855 
64.8998 -25.3972 38.3204 65.0614 -25.6938 39.024 65.4179 -24.8324 38.8587 
65.2871 -25.351 39.2754 70.9621 -25.6698 40.4937 70.8957 -26.4019 40.5314 
70.4182 -25.5655 40.9778 70.5962 -25.5748 39.866 71.4832 -26.0334 40.1088 
71.5489 -25.71 40.9764 72.5172 -27.9132 39.1375 72.4023 -27.0733 39.2333 
71.8964 -27.3641 39.7474 73.121 -27.2934 39.3603 74.3917 -27.0846 41.7985 
73.5802 -26.8149 42.0401 73.7338 -27.5413 41.3521 74.0054 -27.4177 42.3854 
73.1212 -27.0274 42.7869 72.8163 -28.2712 42.6096 73.3483 -27.9204 42.0772 
73.5076 -27.8829 42.9545 72.1061 -26.4983 39.587 71.5816 -26.4489 39.5733 
71.483 -27.029 39.1403 70.9935 -26.2746 39.3724 73.5486 -26.7019 40.9894 
74.053 -26.8007 41.457 74.5307 -26.9986 40.9715 72.813 -26.6333 39.7229 
73.4267 -28.8188 42.9315 73.1232 -28.3464 43.5886 73.9363 -28.3322 42.402 
73.6637 -28.9827 42.0566 74.3514 -27.7756 41.8069 74.283 -28.4661 41.5703 
74.8776 -28.4448 40.3011 74.8796 -29.1223 40.1652 74.1233 -28.5041 40.0786 
75.2425 -28.8962 39.8902 74.6665 -29.4528 39.9345 74.9116 -29.1022 39.6879 
74.0905 -29.064 39.6545 74.3839 -28.724 40.7533 74.0028 -29.1111 40.3917 
74.8836 -27.3697 41.4299 74.663 -27.8941 40.9704 73.2042 -29.5514 42.5059 
71.877 -29.0935 41.7777 71.8353 -30.0342 41.5121 71.3434 -29.4855 42.1989 
71.3339 -29.4911 41.2202 71.4231 -30.3649 40.9747 70.9799 -30.4078 41.5165 
70.9862 -30.1996 40.4768 71.3978 -30.4013 42.0173 71.0799 -30.5632 42.4767 
72.1586 -29.5174 39.1649 71.821 -30.0387 39.6571 71.3919 -29.3646 40.1197 
71.4317 -29.8165 39.0516 71.4735 -30.3944 39.9723 70.9773 -30.0646 39.6432 
71.8212 -30.0394 40.473 72.4608 -29.7887 39.9816 72.5574 -29.9306 41.0012 
72.5421 -28.2754 40.7663 73.0489 -29.5242 40.4898 73.2616 -28.6477 41.0526 
72.4098 -28.866 41.2695 73.4733 -29.4366 40.9104 73.1297 -29.5964 41.5642 
73.8391 -29.0822 41.3124 72.5498 -29.9225 42.0375 71.5157 -27.9153 38.7884 
71.9787 -27.5141 38.9162 0.428394 -75.0404 49.3743 0.402204 -76.0198 49.4144 
1.07378 -75.5039 49.2093 0.748954 -75.4094 50.2458 -0.734772 -76.0694 50.3817 
-0.414989 -76.7134 50.6375 0.12583 -76.3571 51.1069 -0.928058 -76.4338 51.0493 
1.91545 -76.1765 49.2424 1.92061 -75.4883 49.1788 1.46868 -75.9851 48.887 
1.37052 -75.7569 49.9833 2.02137 -74.5735 49.2146 1.54961 -75.0953 49.829 
1.46023 -74.9861 48.913 3.68554 -74.4544 49.1736 3.68551 -75.2218 49.1419 
3.0959 -74.7947 49.686 3.46534 -74.9875 48.8368 3.15211 -75.6851 49.3927 
3.07375 -75.6464 49.9294 2.84312 -75.3858 49.15 4.03453 -74.9213 49.3683 
3.61001 -75.1689 49.8901 2.47749 -75.9649 48.8512 2.20939 -75.7187 49.7723 
2.47655 -74.9786 48.9399 2.33332 -75.026 49.8415 2.69843 -76.2015 49.161 
2.3803 -76.5779 49.4199 2.68584 -76.2367 49.9264 3.71235 -73.712 49.1705 
3.49123 -73.9754 48.8433 3.16737 -74.1216 49.862 3.31401 -73.2794 49.599 
2.84684 -73.7533 50.3509 2.96983 -73.6993 49.2232 2.20616 -73.7581 49.2127 
2.39259 -74.2226 49.8292 2.49957 -73.9914 48.8767 2.66865 -73.3088 49.5837 
3.03052 -72.8506 49.8957 3.43813 -73.0657 50.4335 52.431 -68.0686 49.2041 
51.3237 -68.0997 48.9815 52.0102 -68.4356 48.5157 51.7382 -68.6337 49.4022 
51.8307 -67.7307 48.4683 51.9615 -67.7336 49.6534 50.8791 -67.7171 49.5572 
51.4067 -67.4149 49.0693 51.1592 -67.116 49.8773 53.2534 -67.1137 47.8251 
53.4972 -67.4412 47.1536 54.0008 -67.7325 47.789 52.9354 -67.7362 47.5249 
53.8296 -67.7183 46.7762 53.5187 -68.1648 47.165 54.3357 -68.1607 46.9403 
52.4371 -68.8601 48.9201 53.0276 -68.3837 48.7121 52.8119 -69.1771 48.3435 
53.3761 -68.8525 47.9355 52.5342 -68.805 48.1087 52.3437 -68.1474 47.9384 
53.0371 -68.4724 47.6294 59.5696 -70.9487 50.0561 59.5884 -72.089 49.9467 
59.1698 -71.4252 50.6277 59.1601 -71.6071 49.4234 59.1087 -72.2876 50.4989 
58.5647 -72.0975 51.0158 58.8097 -71.8969 50.1642 59.8158 -71.8982 48.8635 
60.5032 -72.1066 48.814 60.1007 -72.3407 48.329 60.1133 -71.2717 48.5737 
59.3143 -71.3953 48.4634 59.8393 -71.9314 48.0671 59.5178 -71.2259 47.8062 
58.8845 -69.929 46.9065 57.7462 -70.1068 46.7317 58.3796 -70.4188 46.3816 
58.1762 -70.5815 47.3266 58.6454 -69.8566 48.9375 58.5294 -71.2 48.8487 
59.1375 -70.4224 48.4215 58.9477 -70.5323 49.54 59.5468 -70.8445 49.0696 
58.1317 -70.4918 49.5121 58.0377 -71.2287 49.4062 58.4097 -71.4295 49.839 
57.4519 -71.1881 49.9024 57.7197 -71.9056 51.2901 58.1413 -71.4804 51.6958 
58.1132 -71.6099 50.563 56.9608 -71.6313 51.6252 57.5432 -71.0926 52.1739 
57.3992 -71.4105 50.8883 56.631 -70.0582 51.2775 56.3836 -71.2416 50.9748 
56.0202 -70.4534 50.7037 57.0602 -70.5656 50.6159 55.8795 -71.171 50.4773 
55.4623 -70.8428 50.0333 56.3974 -70.9339 49.9084 56.9229 -71.1948 50.4302 
56.0229 -70.5888 51.618 57.068 -70.7252 51.6033 56.4991 -71.0666 52.1846 
55.8573 -71.522 51.6864 55.4128 -70.8967 52.1127 56.0409 -69.7981 47.1836 
[...]
CELL_DATA 75214
FIELD FieldData 1
Label 1 75214 float
128 128 128 128 128 128 128 128 128 
128 128 128 128 128 128 128 128 128 
128 128 128 128 128 128 128 128 128 
128 128 128 128 128 128 128 128 128 
128 128 128 128 128 128 128 128 128 
128 128 128 128 128 128 128 128 128 
128 128 128 128 128 128 128 128 128 
128 128 128 128 128 128 128 128 128 
128 128 128 128 128 128 128 128 128 
128 128 128 128 128 128 128 128 128 
128 128 128 128 128 128 128 128 128 
128 128 128 128 128 128 128 128 128 
128 128 128 128 128 128 128 128 128 
128 128 128 128 128 128 128 128 128 
128 128 128 128 128 128 128 128 128 
128 128 128 128 128 128 128 128 128 
128 128 128 128 128 128 128 128 128 
128 128 128 128 128 128 128 128 128 
128 128 128 128 128 128 128 128 128 
128 128 128 128 128 128 128 128 128 
128 128 128 128 128 128 128 128 128 
128 128 128 128 128 128 128 128 128 
128 128 128 128 128 128 128 128 128 
128 128 128 128 128 128 128 128 128 
128 128 128 128 128 128 128 128 128 
128 128 128 128 128 128 128 128 128 
128 128 128 128 128 128 128 128 128 
128 128 128 128 128 128 128 128 128 
128 128 128 128 128 128 128 128 128 
128 128 128 128 128 128 128 128 128 
128 128 128 128 128 128 128 128 128 
128 128 128 128 128 128 128 128 128 
128 128 128 128 128 128 128 128 128 
128 128 128 128 128 128 128 128 128 
128 128 128 128 128 128 128 128 128 
128 128 128 128 128 128 128 128 128 
128 128 128 128 128 128 128 128 128 
128 128 128 128 128 128 128 128 128 
128 128 128 128 128 128 128 128 128 
128 128 128 128 128 128 128 128 128 
128 128 128 128 128 128 128 128 128 
128 128 128 128 128 128 128 128 128 
128 128 128 128 128 128 128 128 128 
128 128 128 128 128 128 128 128 128 
128 128 128 128 128 128 128 128 128 
128 128 128 128 128 128 128 128 128 
128 128 128 128 128 128 128 128 128 
128 128 128 128 128 128 128 128 128 
128 128 128 128 128 128 128 128 128 
128 128 128 128 128 128 128 128 128 
128 128 128 128 128 128 128 128 128 
128 128 128 128 128 128 128 128 128 
128 128 128 128 128 128 128 128 128 
128 128 128 128 128 128 128 128 128 
128 128 128 128 128 128 128 128 128 
128 128 128 128 128 128 128 128 128 
128 128 128 128 128 128 128 128 128 
128 128 128 128 128 128 128 128 128 
128 128 128 128 128 128 128 128 128 
128 128 128 128 128 128 128 128 128 
128 128 128 128 128 128 128 128 128 
128 128 128 128 128 128 128 128 128 
128 128 128 128 128 128 128 128 128 
128 128 128 128 128 128 128 128 128 
128 128 128 128 128 128 128 128 128 
128 128 128 128 128 128 128 128 128 
128 128 128 128 128 128 128 128 128 
128 128 128 128 128 128 128 128 128 
128 128 128 128 128 128 128 128 128 
128 128 128 128 128 128 128 128 128 
128 128 128 128 128 128 128 128 128 
128 128 128 128 128 128 128 128 128 
128 128 128 128 128 128 128 128 128 
128 128 128 128 128 128 128 128 128 
128 128 128 128 128 128 128 128 128 
128 128 128 128 128 128 128 128 128 
128 128 128 128 128 128 128 128 128 
128 128 128 128 128 128 128 128 128 
128 128 128 128 128 128 128 128 128 
128 128 128 128 128 128 128 128 128 
128 128 128 128 128 128 128 128 128 
128 128 128 128 128 128 128 128 128 
128 128 128 128 128 128 128 128 128 
128 128 128 128 128 128 128 128 128 
128 128 128 128 128 128 128 128 128 
128 128 128 128 128 128 128 128 128 
128 128 128 128 128 128 128 128 128 
128 128 128 128 128 128 128 128 128 
128 128 128 128 128 128 128 128 128 
128 128 128 128 128 128 128 128 128 
128 128 128 128 128 128 128 128 128 
128 128 128 128 128 128 128 128 128 
128 128 128 128 128 128 128 128 128 
128 128 128 128 128 128 128 128 128 
128 128 128 128 128 128 128 128 128 
128 128 128 128 128 128 128 128 128 
128 128 128 128 128 128 128 128 128 
128 128 128 128 128 128 128 128 128 
128 128 128 128 128 128 128 128 128 
128 128 128 128 128 128 128 128 128 
128 128 128 128 128 128 128 128 128 
128 128 128 128 128 128 128 128 128 
128 128 128 128 128 128 128 128 128 
128 128 128 128 128 128 128 128 128 
128 128 128 128 128 128 128 128 128 
128 128 128 128 128 128 128 128 128 
128 128 128 128 128 128 128 128 128 
128 128 128 128 128 128 128 128 128 
128 128 128 128 128 128 128 128 128 
128 128 128 128 128 128 128 128 128 
128 128 128 128 128 128 128 128 128 
128 128 128 128 128 128 128 128 128 
128 128 128 128 128 128 128 128 128 
128 128 128 128 128 128 128 128 128 
128 128 128 128 128 128 128 128 128 
128 128 128 128 128 128 128 128 128 
128 128 128 128 128 128 128 128 128 
128 128 128 128 128 128 128 128 128 
128 128 128 128 128 128 128 128 128 
128 128 128 128 128 128 128 128 128 
128 128 128 128 128 128 128 128 128 
128 128 128 128 128 128 128 128 128 
128 128 128 128 128 128 128 128 128 
128 128 128 128 128 128 128 128 128 
128 128 128 128 128 128 128 128 128 
128 128 128 128 128 128 128 128 128 
128 128 128 128 128 128 128 128 128 
128 128 128 128 128 128 128 128 128 
128 128 128 128 128 128 128 128 128 
128 128 128 128 128 128 128 128 128 
128 128 128 128 128 128 128 128 128 
128 128 128 128 128 128 128 128 128 
128 128 128 128 128 128 128 128 128 
128 128 128 128 128 128 128 128 128 
128 128 128 128 128 128 128 128 128 
128 128 128 128 128 128 128 128 128 
128 128 128 128 128 128 128 128 128 
128 128 128 128 128 128 128 128 128 
128 128 128 128 128 128 128 128 128 
128 128 128 128 128 128 128 128 128 
128 128 128 128 128 128 128 128 128 
128 128 128 128 128 128 128 128 128 
128 128 128 128 128 128 128 128 128 
128 128 128 128 128 128 128 128 128 
128 128 128 128 128 128 128 128 128 
128 128 128 128 128 128 128 128 128 
128 128 128 128 128 128 128 128 128 
128 128 128 128 128 128 128 128 128 
128 128 128 128 128 128 128 128 128 
128 128 128 128 128 128 128 128 128 
128 128 128 128 128 128 128 128 128 
128 128 128 128 128 128 128 128 128 
128 128 128 128 128 128 128 128 128 
128 128 128 128 128 128 128 128 128 
128 128 128 128 128 128 128 128 128 
128 128 128 128 128 128 128 128 128 
128 128 128 128 128 128 128 128 128 
128 128 128 128 128 128 128 128 128 
128 128 128 128 128 128 128 128 128 
128 128 128 128 128 128 128 128 128 
128 128 128 128 128 128 128 128 128 
128 128 128 128 128 128 128 128 128 
128 128 128 128 128 128 128 128 128 
128 128 128 128 128 128 128 128 128 
128 128 128 128 128 128 128 128 128 
128 128 128 128 128 128 128 128 128 
128 128 128 128 128 128 128 128 128 
128 128 128 128 128 128 128 128 128 
128 128 128 128 128 128 128 128 128 
128 128 128 128 128 128 128 128 128 
128 128 128 128 128 128 128 128 128 
128 128 128 128 128 128 128 128 128 
128 128 128 128 128 128 128 128 128 
128 128 128 128 128 128 128 128 128 
128 128 128 128 128 128 128 128 128 
128 128 128 128 128 128 128 128 128 
128 128 128 128 128 128 128 128 128 
128 128 128 128 128 128 128 128 128 
128 128 128 128 128 128 128 128 128 
128 128 128 128 128 128 128 128 128 
128 128 128 128 128 128 128 128 128 
128 128 128 128 128 128 128 128 128 
128 128 128 128 128 128 128 128 128 
128 128 128 128 128 128 128 128 128 
128 128 128 128 128 128 128 128 128 
128 128 128 128 128 128 128 128 128 
128 128 128 128 128 128 128 128 128 
128 128 128 128 128 128 128 128 128 
128 128 128 128 128 128 128 128 128 
128 128 128 128 128 128 128 128 128 
128 128 128 128 128 128 128 128 128 
128 128 128 128 128 128 128 128 128 
128 128 128 128 128 128 128 128 128 
128 128 128 128 128 128 128 128 128 
128 128 128 128 128 128 128 128 128 
128 128 128 128 128 128 128 128 128 
128 128 128 128 128 128 128 128 128 
128 128 128 128 128 128 128 128 128 
128 128 128 128 128 128 128 128 128 
128 128 128 128 128 128 128 128 128 
128 128 128 128 128 128 128 128 128 
128 128 128 128 128 128 128 128 128 
128 128 128 128 128 128 128 128 128 
128 128 128 128 128 128 128 128 128 
128 128 128 128 128 128 128 128 128 
128 128 128 128 128 128 128 128 128 
128 128 128 128 128 128 128 128 128 
128 128 128 128 128 128 128 128 128 
128 128 128 128 128 128 128 128 128 
128 128 128 128 128 128 128 128 128 
128 128 128 128 128 128 128 128 128 
128 128 128 128 128 128 128 128 128 
128 128 128 128 128 128 128 128 128 
128 128 128 128 128 128 128 128 128 
128 128 128 128 128 128 128 128 128 
128 128 128 128 128 128 128 128 128 
128 128 128 128 128 128 128 128 128 
128 128 128 128 128 128 128 128 128 
128 128 128 128 128 128 128 128 128 
128 128 128 128 128 128 128 128 128 
128 128 128 128 128 128 128 128 128 
128 128 128 128 128 128 128 128 128 
128 128 128 128 128 128 128 128 128 
128 128 128 128 128 128 128 128 128 
128 128 128 128 128 128 128 128 128 
128 128 128 128 128 128 128 128 128 
128 128 128 128 128 128 128 128 128 
128 128 128 128 128 128 128 128 128 
128 128 128 128 128 128 128 128 128 
128 128 128 128 128 128 128 128 128 
128 128 128 128 128 128 128 128 128 
128 128 128 128 128 128 128 128 128 
128 128 128 128 128 128 128 128 128 
128 128 128 128 128 128 128 128 128 
128 128 128 128 128 128 128 128 128 
128 128 128 128 128 128 128 128 128 
128 128 128 128 128 128 128 128 128 
128 128 128 128 128 128 128 128 128 
128 128 128 128 128 128 128 128 128 
128 128 128 128 128 128 128 128 128 
128 128 128 128 128 128 128 128 128 
128 128 128 128 128 128 128 128 128 
128 128 128 128 128 128 128 128 128 
128 128 128 128 128 128 128 128 128 
128 128 128 128 128 128 128 128 128 
128 128 128 128 128 128 128 128 128 
128 128 128 128 128 128 128 128 128 
128 128 128 128 128 128 128 128 128 
128 128 128 128 128 128 128 128 128 
128 128 128 128 128 128 128 128 128 
128 128 128 128 128 128 128 128 128 
128 128 128 128 128 128 128 128 128 
128 128 128 128 128 128 128 128 128 
128 128 128 128 128 128 128 128 128 
128 128 128 128 128 128 128 128 128 
128 128 128 128 128 128 128 128 128 
128 128 128 128 128 128 128 128 128 
128 128 128 128 128 128 128 128 128 
128 128 128 128 128 128 128 128 128 
128 128 128 128 128 128 128 128 128 
128 128 128 128 128 128 128 128 128 
128 128 128 128 128 128 128 128 128 
128 128 128 128 128 128 128 128 128 
128 128 128 128 128 128 128 128 128 
128 128 128 128 128 128 128 128 128 
128 128 128 128 128 128 128 128 128 
128 128 128 128 128 128 128 128 128 
128 128 128 128 128 128 128 128 128 
128 128 128 128 128 128 128 128 128 
128 128 128 128 128 128 128 128 128 
128 128 128 128 128 128 128 128 128 
128 128 128 128 128 128 128 128 128 
128 128 128 128 128 128 128 128 128 
128 128 128 128 128 128 128 128 128 
128 128 128 128 128 128 128 128 128 
128 128 128 128 128 128 128 128 128 
128 128 128 128 128 128 128 128 128 
128 128 128 128 128 128 128 128 128 
128 128 128 128 128 128 128 128 128 
128 128 128 128 128 128 128 128 128 
128 128 128 128 128 128 128 128 128 
128 128 128 128 128 128 128 128 128 
128 128 128 128 128 128 128 128 128 
128 128 128 128 128 128 128 128 128 
128 128 128 128 128 128 128 128 128 
128 128 128 128 128 128 128 128 128 
128 128 128 128 128 128 128 128 128 
128 128 128 128 128 128 128 128 128 
128 128 128 128 128 128 128 128 128 
128 128 128 128 128 128 128 128 128 
128 128 128 128 128 128 128 128 128 
128 128 128 128 128 128 128 128 128 
128 128 128 128 128 128 128 128 128 
128 128 128 128 128 128 128 128 128 
128 128 128 128 128 128 128 128 128 
128 128 128 128 128 128 128 128 128 
128 128 128 128 128 128 128 128 128 
128 128 128 128 128 128 128 128 128 
128 128 128 128 128 128 128 128 128 
128 128 128 128 128 128 128 128 128 
128 128 128 128 128 128 128 128 128 
128 128 128 128 128 128 128 128 128 
128 128 128 128 128 128 128 128 128 
128 128 128 128 128 128 128 128 128 
128 128 128 128 128 128 128 128 128 
128 128 128 128 128 128 128 128 128 
128 128 128 128 128 128 128 128 128 
128 128 128 128 128 128 128 128 128 
128 128 128 128 128 128 128 128 128 
128 128 128 128 128 128 128 128 128 
128 128 128 128 128 128 128 128 128 
128 128 128 128 128 128 128 128 128 
128 128 128 128 128 128 128 128 128 
128 128 128 128 128 128 128 128 128 
128 128 128 128 128 128 128 128 128 
128 128 128 128 128 128 128 128 128 
128 128 128 128 128 128 128 128 128 
128 128 128 128 128 128 128 128 128 
128 128 128 128 128 128 128 128 128 
128 128 128 128 128 128 128 128 128 
128 128 128 128 128 128 128 128 128 
128 128 128 128 128 128 128 128 128 
128 128 128 128 128 128 128 128 128 
128 128 128 128 128 128 128 128 128 
128 128 128 128 128 128 128 128 128 
128 128 128 128 128 128 128 128 128 
128 128 128 128 128 128 128 128 128 
128 128 128 128 128 128 128 128 128 
128 128 128 128 128 128 128 128 128 
128 128 128 128 128 128 128 128 128 
128 128 128 128 128 128 128 128 128 
128 128 128 128 128 128 128 128 128 
128 128 128 128 128 128 128 128 128 
128 128 128 128 128 128 128 128 128 
128 128 128 128 128 128 128 128 128 
128 128 128 128 128 128 128 128 128 
128 128 128 128 128 128 128 128 128 
128 128 128 128 128 128 128 128 128 
128 128 128 128 128 128 128 128 128 
128 128 128 128 128 128 128 128 128 
128 128 128 128 128 128 128 128 128 
128 128 128 128 128 128 128 128 128 
128 128 128 128 128 128 128 128 128 
128 128 128 128 128 128 128 128 128 
128 128 128 128 128 128 128 128 128 
128 128 128 128 128 128 128 128 128 
128 128 128 128 128 128 128 128 128 
128 128 128 128 128 128 128 128 128 
128 128 128 128 128 128 128 128 128 
128 128 128 128 128 128 128 128 128 
128 128 128 128 128 128 128 128 128 
128 128 128 128 128 128 128 128 128 
128 128 128 128 128 128 128 128 128 
128 128 128 128 128 128 128 128 128 
128 128 128 128 128 128 128 128 128 
128 128 128 128 128 128 128 128 128 
128 128 128 128 128 128 128 128 128 
128 128 128 128 128 128 128 128 128 
128 128 128 128 128 128 128 128 128 
128 128 128 128 128 128 128 128 128 
128 128 128 128 128 128 128 128 128 
128 128 128 128 128 128 128 128 128 
128 128 128 128 128 128 128 128 128 
128 128 128 128 128 128 128 128 128 
128 128 128 128 128 128 128 128 128 
128 128 128 128 128 128 128 128 128 
128 128 128 128 128 128 128 128 128 
128 128 128 128 128 128 128 128 128 
128 128 128 128 128 128 128 128 128 
128 128 128 128 128 128 128 128 128 
128 128 128 128 128 128 128 128 128 
128 128 128 128 128 128 128 128 128 
128 128 128 128 128 128 128 128 128 
128 128 128 128 128 128 128 128 128 
128 128 128 128 128 128 128 128 128 
128 128 128 128 128 128 128 128 128 
128 128 128 128 128 128 128 128 128 
128 128 128 128 128 128 128 128 128 
128 128 128 128 128 128 128 128 128 
128 128 128 128 128 128 128 128 128 
128 128 128 128 128 128 128 128 128 
128 128 128 128 128 128 128 128 128 
128 128 128 128 128 128 128 128 128 
128 128 128 128 128 128 128 128 128 
128 128 128 128 128 128 128 128 128 
128 128 128 128 128 128 128 128 128 
128 128 128 128 128 128 128 128 128 
128 128 128 128 128 128 128 128 128 
128 128 128 128 128 128 128 128 128 
128 128 128 128 128 128 128 128 128 
128 128 128 128 128 128 128 128 128 
128 128 128 128 128 128 128 128 128 
128 128 128 128 128 128 128 128 128 
128 128 128 128 128 128 128 128 128 
128 128 128 128 128 128 128 128 128 
128 128 128 128 128 128 128 128 128 
128 128 128 128 128 128 128 128 128 
128 128 128 128 128 128 128 128 128 
128 128 128 128 128 128 128 128 128 
128 128 128 128 128 128 128 128 128 
128 128 128 128 128 128 128 128 128 
128 128 128 128 128 128 128 128 128 
128 128 128 128 128 128 128 128 128 
128 128 128 128 128 128 128 128 128 
128 128 128 128 128 128 128 128 128 
128 128 128 128 128 128 128 128 128 
128 128 128 128 128 128 128 128 128 
128 128 128 128 128 128 128 128 128 
128 128 128 128 128 128 128 128 128 
128 128 128 128 128 128 128 128 128 
128 128 128 128 128 128 128 128 128 
128 128 128 128 128 128 128 128 128 
128 128 128 128 128 128 128 128 128 
128 128 128 128 128 128 128 128 128 
128 128 128 128 128 128 128 128 128 
128 128 128 128 128 128 128 128 128 
128 128 128 128 128 128 128 128 128 
128 128 128 128 128 128 128 128 128 
128 128 128 128 128 128 128 128 128 
128 128 128 128 128 128 128 128 128 
128 128 128 128 128 128 128 128 128 
128 128 128 128 128 128 128 128 128 
128 128 128 128 128 128 128 128 128 
128 128 128 128 128 128 128 128 128 
128 128 128 128 128 128 128 128 128 
128 128 128 128 128 128 128 128 128 
128 128 128 128 128 128 128 128 128 
128 128 128 128 128 128 128 128 128 
128 128 128 128 128 128 128 128 128 
128 128 128 128 128 128 128 128 128 
128 128 128 128 128 128 128 128 128 
128 128 128 128 128 128 128 128 128 
128 128 128 128 128 128 128 128 128 
128 128 128 128 128 128 128 128 128 
128 128 128 128 128 128 128 128 128 
128 128 128 128 128 128 128 128 128 
128 128 128 128 128 128 128 128 128 
128 128 128 128 128 128 128 128 128 
128 128 128 128 128 128 128 128 128 
128 128 128 128 128 128 128 128 128 
128 128 128 128 128 128 128 128 128 
128 128 128 128 128 128 128 128 128 
128 128 128 128 128 128 128 128 128 
128 128 128 128 128 128 128 128 128 
128 128 128 128 128 128 128 128 128 
128 128 128 128 128 128 128 128 128 
128 128 128 128 128 128 128 128 128 
128 128 128 128 128 128 128 128 128 
128 128 128 128 128 128 128 128 128 
128 128 128 128 128 128 128 128 128 
128 128 128 128 128 128 128 128 128 
128 128 128 128 128 128 128 128 128 
128 128 128 128 128 128 128 128 128 
128 128 128 128 128 128 128 128 128 
128 128 128 128 128 128 128 128 128 
128 128 128 128 128 128 128 128 128 
128 128 128 128 128 128 128 128 128 
128 128 128 128 128 128 128 128 128 
128 128 128 128 128 128 128 128 128 
128 128 128 128 128 128 128 128 128 
128 128 128 128 128 128 128 128 128 
128 128 128 128 128 128 128 128 128 
128 128 128 128 128 128 128 128 128 
128 128 128 128 128 128 128 128 128 
128 128 128 128 128 128 128 128 128 
128 128 128 128 128 128 128 128 128 
128 128 128 128 128 128 128 128 128 
128 128 128 128 128 128 128 128 128 
128 128 128 128 128 128 128 128 128 
128 128 128 128 128 128 128 128 128 
128 128 128 128 128 128 128 128 128 
128 128 128 128 128 128 128 128 128 
128 128 128 128 128 128 128 128 128 
128 128 128 128 128 128 128 128 128 
128 128 128 128 128 128 128 128 128 
128 128 128 128 128 128 128 128 128 
128 128 128 128 128 128 128 128 128 
128 128 128 128 128 128 128 128 128 
128 128 128 128 128 128 128 128 128 
128 128 128 128 128 128 128 128 128 
128 128 128 128 128 128 128 128 128 
128 128 128 128 128 128 128 128 128 
128 128 128 128 128 128 128 128 128 
128 128 128 128 128 128 128 128 128 
128 128 128 128 128 128 128 128 128 
128 128 128 128 128 128 128 128 128 
128 128 128 128 128 128 128 128 128 
128 128 128 128 128 128 128 128 128 
128 128 128 128 128 128 128 128 128 
128 128 128 128 128 128 128 128 128 
128 128 128 128 128 128 128 128 128 
128 128 128 128 128 128 128 128 128 
128 128 128 128 128 128 128 128 128 
128 128 128 128 128 128 128 128 128 
128 128 128 128 128 128 128 128 128 
128 128 128 128 128 128 128 128 128 
128 128 128 128 128 128 128 128 128 
128 128 128 128 128 128 128 128 128 
128 128 128 128 128 128 128 128 128 
128 128 128 128 128 128 128 128 128 
128 128 128 128 128 128 128 128 128 
128 128 128 128 128 128 128 128 128 
128 128 128 128 128 128 128 128 128 
128 128 128 128 128 128 128 128 128 
128 128 128 128 128 128 128 128 128 
128 128 128 128 128 128 128 128 128 
128 128 128 128 128 128 128 128 128 
128 128 128 128 128 128 128 128 128 
128 128 128 128 128 128 128 128 128 
128 128 128 128 128 128 128 128 128 
128 128 128 128 128 128 128 128 128 
128 128 128 128 128 128 128 128 128 
128 128 128 128 128 128 128 128 128 
128 128 128 128 128 128 128 128 128 
128 128 128 128 128 128 128 128 128 
128 128 128 128 128 128 128 128 128 
128 128 128 128 128 128 128 128 128 
128 128 128 128 128 128 128 128 128 
128 128 128 128 128 128 128 128 128 
128 128 128 128 128 128 128 128 128 
128 128 128 128 128 128 128 128 128 
128 128 128 128 128 128 128 128 128 
128 128 128 128 128 128 128 128 128 
128 128 128 128 128 128 128 128 128 
128 128 128 128 128 128 128 128 128 
128 128 128 128 128 128 128 128 128 
128 128 128 128 128 128 128 128 128 
128 128 128 128 128 128 128 128 128 
128 128 128 128 128 128 128 128 128 
128 128 128 128 128 128 128 128 128 
128 128 128 128 128 128 128 128 128 
128 128 128 128 128 128 128 128 128 
128 128 128 128 128 128 128 128 128 
128 128 128 128 128 128 128 128 128 
128 128 128 128 128 128 128 128 128 
128 128 128 128 128 128 128 128 128 
128 128 128 128 128 128 128 128 128 
128 128 128 128 128 128 128 128 128 
128 128 128 128 128 128 128 128 128 