# vtk DataFile Version 3.0
vtk output
ASCII
DATASET UNSTRUCTURED_GRID
POINTS 19980 float
65.7921 -67.1289 41.4891 66.839 -67.1289 41.4891 66.3155 -67.6523 42.0126 
66.3155 -67.6523 40.9657 67.8858 -67.1289 41.4891 67.3624 -67.6523 40.9657 
67.3624 -67.6523 42.0126 66.839 -68.1758 41.4891 66.839 -68.1758 42.536 
66.839 -72.3633 40.4423 67.8858 -72.3633 40.4423 67.3624 -72.8867 39.9188 
67.3624 -71.8398 39.9188 68.4093 -71.8398 39.9188 67.8858 -72.3633 39.3954 
67.8858 -71.3164 39.3954 66.839 -70.2695 40.4423 65.7921 -70.2695 40.4423 
66.3155 -69.7461 39.9188 66.3155 -70.7929 39.9188 66.839 -70.2695 39.3954 
67.8858 -69.2226 41.4891 66.839 -69.2226 41.4891 67.3624 -68.6992 42.0126 
67.3624 -68.6992 40.9657 66.3155 -68.6992 42.0126 66.839 -69.2226 40.4423 
67.3624 -69.7461 39.9188 66.3155 -70.7929 40.9657 66.3155 -69.7461 40.9657 
65.7921 -71.3164 41.4891 66.839 -71.3164 41.4891 66.3155 -70.7929 42.0126 
66.3155 -71.8398 42.0126 67.8858 -71.3164 41.4891 67.3624 -70.7929 42.0126 
67.3624 -71.8398 42.0126 66.839 -70.2695 42.536 66.839 -71.3164 42.536 
63.6983 -71.3164 43.5829 63.6983 -70.2695 43.5829 64.2218 -70.7929 44.1063 
64.2218 -70.7929 43.0594 64.2218 -69.7461 43.0594 64.7452 -70.2695 42.536 
64.7452 -70.2695 43.5829 64.2218 -69.7461 44.1063 64.7452 -70.2695 44.6298 
70.503 -68.6992 37.8251 70.503 -68.6992 36.7782 71.0265 -69.2226 37.3016 
69.9796 -69.2226 37.3016 70.503 -69.7461 36.7782 69.9796 -68.1758 37.3016 
69.4561 -68.6992 37.8251 69.4561 -68.6992 36.7782 68.9327 -71.3164 40.4423 
68.9327 -70.2695 40.4423 69.4561 -70.7929 39.9188 68.4093 -70.7929 39.9188 
68.9327 -71.3164 39.3954 67.3624 -71.8398 38.8719 68.4093 -71.8398 38.8719 
67.3624 -72.8867 38.8719 66.839 -72.3633 38.3485 67.8858 -72.3633 38.3485 
67.3624 -71.8398 37.8251 67.3624 -70.7929 37.8251 67.8858 -71.3164 37.3016 
66.839 -71.3164 37.3016 71.0265 -69.2226 38.3485 71.0265 -70.2695 38.3485 
70.503 -69.7461 37.8251 71.5499 -69.7461 37.8251 71.0265 -70.2695 37.3016 
70.503 -70.7929 37.8251 69.9796 -70.2695 37.3016 68.9327 -71.3164 38.3485 
68.9327 -70.2695 38.3485 68.4093 -70.7929 38.8719 69.4561 -70.7929 38.8719 
69.4561 -70.7929 37.8251 69.9796 -70.2695 38.3485 69.4561 -69.7461 38.8719 
70.503 -70.7929 38.8719 70.503 -69.7461 38.8719 69.9796 -69.2226 39.3954 
69.9796 -70.2695 39.3954 67.8858 -72.3633 37.3016 68.4093 -71.8398 37.8251 
68.9327 -72.3633 36.2548 68.9327 -72.3633 37.3016 68.4093 -71.8398 36.7782 
68.4093 -72.8867 36.7782 67.8858 -72.3633 36.2548 67.3624 -71.8398 36.7782 
68.9327 -70.2695 35.2079 68.9327 -70.2695 36.2548 69.4561 -70.7929 35.7313 
69.4561 -69.7461 35.7313 69.9796 -70.2695 40.4423 69.4561 -69.7461 40.9657 
69.4561 -70.7929 40.9657 70.503 -69.7461 40.9657 69.9796 -70.2695 41.4891 
69.9796 -69.2226 41.4891 71.0265 -69.2226 39.3954 70.503 -68.6992 38.8719 
70.503 -68.6992 39.9188 69.4561 -69.7461 39.9188 70.503 -69.7461 39.9188 
71.5499 -69.7461 38.8719 71.0265 -70.2695 39.3954 62.6515 -28.3945 38.3485 
62.6515 -28.3945 37.3016 63.1749 -27.8711 37.8251 63.1749 -28.9179 37.8251 
65.2686 -24.7304 39.9188 66.3155 -24.7304 39.9188 65.7921 -25.2539 40.4423 
65.7921 -25.2539 39.3954 65.2686 -26.8242 39.9188 65.2686 -27.8711 39.9188 
64.7452 -27.3476 39.3954 65.7921 -27.3476 39.3954 64.2218 -26.8242 38.8719 
64.2218 -25.7773 38.8719 64.7452 -26.3008 38.3485 63.6983 -26.3008 38.3485 
64.7452 -26.3008 39.3954 65.7921 -29.4414 41.4891 65.7921 -28.3945 41.4891 
65.2686 -28.9179 40.9657 65.2686 -28.9179 42.0126 65.7921 -27.3476 41.4891 
65.2686 -27.8711 42.0126 65.2686 -27.8711 40.9657 64.7452 -28.3945 41.4891 
66.839 -28.3945 42.536 65.7921 -28.3945 42.536 66.3155 -28.9179 43.0594 
66.3155 -27.8711 43.0594 62.6515 -30.4883 40.4423 62.6515 -31.5351 40.4423 
63.1749 -31.0117 40.9657 62.128 -31.0117 40.9657 63.1749 -32.0586 40.9657 
63.6983 -31.5351 41.4891 62.6515 -31.5351 41.4891 64.7452 -30.4883 42.536 
64.7452 -29.4414 42.536 64.2218 -29.9648 43.0594 65.2686 -29.9648 43.0594 
64.2218 -29.9648 42.0126 68.9327 -26.3008 38.3485 68.9327 -25.2539 38.3485 
69.4561 -25.7773 37.8251 68.4093 -25.7773 37.8251 68.4093 -25.7773 38.8719 
68.4093 -24.7304 38.8719 67.8858 -25.2539 39.3954 67.8858 -25.2539 38.3485 
69.4561 -25.7773 38.8719 68.9327 -30.4883 40.4423 68.9327 -31.5351 40.4423 
68.4093 -31.0117 39.9188 69.4561 -31.0117 39.9188 68.4093 -32.0586 39.9188 
68.9327 -31.5351 39.3954 67.8858 -31.5351 39.3954 69.9796 -29.4414 39.3954 
69.9796 -30.4883 39.3954 69.4561 -29.9648 38.8719 70.503 -29.9648 38.8719 
66.839 -28.3945 38.3485 66.839 -29.4414 38.3485 66.3155 -28.9179 37.8251 
67.3624 -28.9179 37.8251 66.839 -28.3945 37.3016 67.3624 -27.8711 37.8251 
66.3155 -27.8711 37.8251 68.9327 -28.3945 38.3485 68.9327 -29.4414 38.3485 
69.4561 -28.9179 37.8251 69.4561 -28.9179 38.8719 69.9796 -29.4414 38.3485 
68.4093 -28.9179 37.8251 70.503 -28.9179 38.8719 70.503 -28.9179 37.8251 
71.0265 -28.3945 38.3485 71.0265 -29.4414 38.3485 69.9796 -27.3476 39.3954 
69.9796 -27.3476 38.3485 70.503 -26.8242 38.8719 70.503 -27.8711 38.8719 
65.2686 -24.7304 36.7782 66.3155 -24.7304 36.7782 65.7921 -24.207 37.3016 
65.7921 -25.2539 37.3016 66.3155 -24.7304 37.8251 66.3155 -25.7773 36.7782 
65.7921 -25.2539 36.2548 64.2218 -25.7773 37.8251 64.2218 -26.8242 37.8251 
64.7452 -25.2539 38.3485 65.2686 -25.7773 38.8719 65.2686 -24.7304 38.8719 
64.7452 -25.2539 39.3954 71.0265 -25.2539 40.4423 71.0265 -26.3008 40.4423 
70.503 -25.7773 40.9657 70.503 -25.7773 39.9188 71.5499 -25.7773 39.9188 
71.5499 -25.7773 40.9657 72.5968 -27.8711 38.8719 72.5968 -26.8242 38.8719 
72.0733 -27.3476 39.3954 73.1202 -27.3476 39.3954 74.6905 -26.8242 42.0126 
73.6436 -26.8242 42.0126 74.1671 -27.3476 41.4891 74.1671 -27.3476 42.536 
73.1202 -27.3476 42.536 73.1202 -28.3945 42.536 73.6436 -27.8711 42.0126 
73.6436 -27.8711 43.0594 72.0733 -26.3008 39.3954 71.5499 -26.8242 39.9188 
71.5499 -26.8242 38.8719 71.0265 -26.3008 39.3954 73.6436 -26.8242 40.9657 
74.1671 -26.3008 41.4891 74.6905 -26.8242 40.9657 72.5968 -26.8242 39.9188 
73.6436 -28.9179 43.0594 73.1202 -28.3945 43.5829 74.1671 -28.3945 42.536 
73.6436 -28.9179 42.0126 74.6905 -27.8711 42.0126 74.1671 -28.3945 41.4891 
75.214 -28.3945 40.4423 75.214 -29.4414 40.4423 74.6905 -28.9179 39.9188 
75.7374 -28.9179 39.9188 74.6905 -29.9648 39.9188 75.214 -29.4414 39.3954 
74.1671 -29.4414 39.3954 74.6905 -28.9179 40.9657 74.1671 -29.4414 40.4423 
75.214 -27.3476 41.4891 74.6905 -27.8711 40.9657 73.1202 -29.4414 42.536 
72.0733 -29.4414 41.4891 72.0733 -30.4883 41.4891 71.5499 -29.9648 42.0126 
71.5499 -29.9648 40.9657 71.5499 -31.0117 40.9657 71.0265 -30.4883 41.4891 
71.0265 -30.4883 40.4423 71.5499 -31.0117 42.0126 71.0265 -30.4883 42.536 
72.0733 -29.4414 39.3954 72.0733 -30.4883 39.3954 71.5499 -29.9648 39.9188 
71.5499 -29.9648 38.8719 71.5499 -31.0117 39.9188 71.0265 -30.4883 39.3954 
72.0733 -30.4883 40.4423 72.5968 -29.9648 39.9188 72.5968 -29.9648 40.9657 
73.1202 -28.3945 40.4423 73.1202 -29.4414 40.4423 73.6436 -28.9179 40.9657 
72.5968 -28.9179 40.9657 73.6436 -29.9648 40.9657 73.1202 -29.4414 41.4891 
74.1671 -29.4414 41.4891 72.5968 -29.9648 42.0126 71.5499 -27.8711 38.8719 
72.0733 -27.3476 38.3485 0.362389 -74.9804 49.3407 0.362389 -76.0273 49.3407 
0.885826 -75.5039 48.8173 0.885826 -75.5039 49.8641 -0.684486 -76.0273 50.3876 
-0.684486 -77.0742 50.3876 -0.161049 -76.5508 50.911 -1.20792 -76.5508 50.911 
1.9327 -76.5508 48.8173 1.9327 -75.5039 48.8173 1.40926 -76.0273 48.2938 
1.40926 -76.0273 49.3407 1.9327 -74.457 48.8173 1.40926 -74.9804 49.3407 
1.40926 -74.9804 48.2938 4.02645 -74.457 48.8173 4.02645 -75.5039 48.8173 
3.50301 -74.9804 49.3407 3.50301 -74.9804 48.2938 3.50301 -76.0273 49.3407 
2.97958 -75.5039 49.8641 2.97958 -75.5039 48.8173 4.54989 -74.9804 49.3407 
4.02645 -75.5039 49.8641 2.45614 -76.0273 48.2938 2.45614 -76.0273 49.3407 
2.45614 -74.9804 48.2938 2.45614 -74.9804 49.3407 2.97958 -76.5508 48.8173 
2.45614 -77.0742 49.3407 2.97958 -76.5508 49.8641 4.02645 -73.4101 48.8173 
3.50301 -73.9336 48.2938 3.50301 -73.9336 49.3407 3.50301 -72.8867 49.3407 
2.97958 -73.4101 49.8641 2.97958 -73.4101 48.8173 1.9327 -73.4101 48.8173 
2.45614 -73.9336 49.3407 2.45614 -73.9336 48.2938 2.45614 -72.8867 49.3407 
2.97958 -72.3633 49.8641 3.50301 -72.8867 50.3876 52.1827 -68.1758 48.8173 
51.1358 -68.1758 48.8173 51.6593 -68.6992 48.2938 51.6593 -68.6992 49.3407 
51.6593 -67.6523 48.2938 51.6593 -67.6523 49.3407 50.6124 -67.6523 49.3407 
51.1358 -67.1289 48.8173 51.1358 -67.1289 49.8641 53.2296 -67.1289 47.7704 
53.2296 -67.1289 46.7235 53.753 -67.6523 47.2469 52.7061 -67.6523 47.2469 
53.753 -67.6523 46.2001 53.2296 -68.1758 46.7235 54.2765 -68.1758 46.7235 
52.1827 -69.2226 48.8173 52.7061 -68.6992 48.2938 52.7061 -69.7461 48.2938 
53.2296 -69.2226 47.7704 52.1827 -69.2226 47.7704 52.1827 -68.1758 47.7704 
52.7061 -68.6992 47.2469 59.5108 -71.3164 49.8641 59.5108 -72.3633 49.8641 
58.9874 -71.8398 50.3876 58.9874 -71.8398 49.3407 58.9874 -72.8867 50.3876 
58.464 -72.3633 50.911 58.464 -72.3633 49.8641 59.5108 -72.3633 48.8173 
60.5577 -72.3633 48.8173 60.0343 -72.8867 48.2938 60.0343 -71.8398 48.2938 
58.9874 -71.8398 48.2938 59.5108 -72.3633 47.7704 59.5108 -71.3164 47.7704 
58.464 -70.2695 46.7235 57.4171 -70.2695 46.7235 57.9405 -70.7929 46.2001 
57.9405 -70.7929 47.2469 58.464 -70.2695 48.8173 58.464 -71.3164 48.8173 
58.9874 -70.7929 48.2938 58.9874 -70.7929 49.3407 59.5108 -71.3164 48.8173 
57.9405 -70.7929 49.3407 57.9405 -71.8398 49.3407 58.464 -71.3164 49.8641 
57.4171 -71.3164 49.8641 57.4171 -72.3633 50.911 57.9405 -71.8398 51.4344 
57.9405 -71.8398 50.3876 56.8936 -71.8398 51.4344 57.4171 -71.3164 51.9579 
57.4171 -71.3164 50.911 56.3702 -70.2695 50.911 56.3702 -71.3164 50.911 
55.8468 -70.7929 50.3876 56.8936 -70.7929 50.3876 55.8468 -71.8398 50.3876 
55.3233 -71.3164 49.8641 56.3702 -71.3164 49.8641 56.8936 -71.8398 50.3876 
55.8468 -70.7929 51.4344 56.8936 -70.7929 51.4344 56.3702 -71.3164 51.9579 
55.8468 -71.8398 51.4344 55.3233 -71.3164 51.9579 56.3702 -70.2695 46.7235 
[...]
CELL_DATA 75214
FIELD FieldData 1
Label 1 75214 float
128 128 128 128 128 128 128 128 128 
128 128 128 128 128 128 128 128 128 
128 128 128 128 128 128 128 128 128 
128 128 128 128 128 128 128 128 128 
128 128 128 128 128 128 128 128 128 
128 128 128 128 128 128 128 128 128 
128 128 128 128 128 128 128 128 128 
128 128 128 128 128 128 128 128 128 
128 128 128 128 128 128 128 128 128 
128 128 128 128 128 128 128 128 128 
128 128 128 128 128 128 128 128 128 
128 128 128 128 128 128 128 128 128 
128 128 128 128 128 128 128 128 128 
128 128 128 128 128 128 128 128 128 
128 128 128 128 128 128 128 128 128 
128 128 128 128 128 128 128 128 128 
128 128 128 128 128 128 128 128 128 
128 128 128 128 128 128 128 128 128 
128 128 128 128 128 128 128 128 128 
128 128 128 128 128 128 128 128 128 
128 128 128 128 128 128 128 128 128 
128 128 128 128 128 128 128 128 128 
128 128 128 128 128 128 128 128 128 
128 128 128 128 128 128 128 128 128 
128 128 128 128 128 128 128 128 128 
128 128 128 128 128 128 128 128 128 
128 128 128 128 128 128 128 128 128 
128 128 128 128 128 128 128 128 128 
128 128 128 128 128 128 128 128 128 
128 128 128 128 128 128 128 128 128 
128 128 128 128 128 128 128 128 128 
128 128 128 128 128 128 128 128 128 
128 128 128 128 128 128 128 128 128 
128 128 128 128 128 128 128 128 128 
128 128 128 128 128 128 128 128 128 
128 128 128 128 128 128 128 128 128 
128 128 128 128 128 128 128 128 128 
128 128 128 128 128 128 128 128 128 
128 128 128 128 128 128 128 128 128 
128 128 128 128 128 128 128 128 128 
128 128 128 128 128 128 128 128 128 
128 128 128 128 128 128 128 128 128 
128 128 128 128 128 128 128 128 128 
128 128 128 128 128 128 128 128 128 
128 128 128 128 128 128 128 128 128 
128 128 128 128 128 128 128 128 128 
128 128 128 128 128 128 128 128 128 
128 128 128 128 128 128 128 128 128 
128 128 128 128 128 128 128 128 128 
128 128 128 128 128 128 128 128 128 
128 128 128 128 128 128 128 128 128 
128 128 128 128 128 128 128 128 128 
128 128 128 128 128 128 128 128 128 
128 128 128 128 128 128 128 128 128 
128 128 128 128 128 128 128 128 128 
128 128 128 128 128 128 128 128 128 
128 128 128 128 128 128 128 128 128 
128 128 128 128 128 128 128 128 128 
128 128 128 128 128 128 128 128 128 
128 128 128 128 128 128 128 128 128 
128 128 128 128 128 128 128 128 128 
128 128 128 128 128 128 128 128 128 
128 128 128 128 128 128 128 128 128 
128 128 128 128 128 128 128 128 128 
128 128 128 128 128 128 128 128 128 
128 128 128 128 128 128 128 128 128 
128 128 128 128 128 128 128 128 128 
128 128 128 128 128 128 128 128 128 
128 128 128 128 128 128 128 128 128 
128 128 128 128 128 128 128 128 128 
128 128 128 128 128 128 128 128 128 
128 128 128 128 128 128 128 128 128 
128 128 128 128 128 128 128 128 128 
128 128 128 128 128 128 128 128 128 
128 128 128 128 128 128 128 128 128 
128 128 128 128 128 128 128 128 128 
128 128 128 128 128 128 128 128 128 
128 128 128 128 128 128 128 128 128 
128 128 128 128 128 128 128 128 128 
128 128 128 128 128 128 128 128 128 
128 128 128 128 128 128 128 128 128 
128 128 128 128 128 128 128 128 128 
128 128 128 128 128 128 128 128 128 
128 128 128 128 128 128 128 128 128 
128 128 128 128 128 128 128 128 128 
128 128 128 128 128 128 128 128 128 
128 128 128 128 128 128 128 128 128 
128 128 128 128 128 128 128 128 128 
128 128 128 128 128 128 128 128 128 
128 128 128 128 128 128 128 128 128 
128 128 128 128 128 128 128 128 128 
128 128 128 128 128 128 128 128 128 
128 128 128 128 128 128 128 128 128 
128 128 128 128 128 128 128 128 128 
128 128 128 128 128 128 128 128 128 
128 128 128 128 128 128 128 128 128 
128 128 128 128 128 128 128 128 128 
128 128 128 128 128 128 128 128 128 
128 128 128 128 128 128 128 128 128 
128 128 128 128 128 128 128 128 128 
128 128 128 128 128 128 128 128 128 
128 128 128 128 128 128 128 128 128 
128 128 128 128 128 128 128 128 128 
128 128 128 128 128 128 128 128 128 
128 128 128 128 128 128 128 128 128 
128 128 128 128 128 128 128 128 128 
128 128 128 128 128 128 128 128 128 
128 128 128 128 128 128 128 128 128 
128 128 128 128 128 128 128 128 128 
128 128 128 128 128 128 128 128 128 
128 128 128 128 128 128 128 128 128 
128 128 128 128 128 128 128 128 128 
128 128 128 128 128 128 128 128 128 
128 128 128 128 128 128 128 128 128 
128 128 128 128 128 128 128 128 128 
128 128 128 128 128 128 128 128 128 
128 128 128 128 128 128 128 128 128 
128 128 128 128 128 128 128 128 128 
128 128 128 128 128 128 128 128 128 
128 128 128 128 128 128 128 128 128 
128 128 128 128 128 128 128 128 128 
128 128 128 128 128 128 128 128 128 
128 128 128 128 128 128 128 128 128 
128 128 128 128 128 128 128 128 128 
128 128 128 128 128 128 128 128 128 
128 128 128 128 128 128 128 128 128 
128 128 128 128 128 128 128 128 128 
128 128 128 128 128 128 128 128 128 
128 128 128 128 128 128 128 128 128 
128 128 128 128 128 128 128 128 128 
128 128 128 128 128 128 128 128 128 
128 128 128 128 128 128 128 128 128 
128 128 128 128 128 128 128 128 128 
128 128 128 128 128 128 128 128 128 
128 128 128 128 128 128 128 128 128 
128 128 128 128 128 128 128 128 128 
128 128 128 128 128 128 128 128 128 
128 128 128 128 128 128 128 128 128 
128 128 128 128 128 128 128 128 128 
128 128 128 128 128 128 128 128 128 
128 128 128 128 128 128 128 128 128 
128 128 128 128 128 128 128 128 128 
128 128 128 128 128 128 128 128 128 
128 128 128 128 128 128 128 128 128 
128 128 128 128 128 128 128 128 128 
128 128 128 128 128 128 128 128 128 
128 128 128 128 128 128 128 128 128 
128 128 128 128 128 128 128 128 128 
128 128 128 128 128 128 128 128 128 
128 128 128 128 128 128 128 128 128 
128 128 128 128 128 128 128 128 128 
128 128 128 128 128 128 128 128 128 
128 128 128 128 128 128 128 128 128 
128 128 128 128 128 128 128 128 128 
128 128 128 128 128 128 128 128 128 
128 128 128 128 128 128 128 128 128 
128 128 128 128 128 128 128 128 128 
128 128 128 128 128 128 128 128 128 
128 128 128 128 128 128 128 128 128 
128 128 128 128 128 128 128 128 128 
128 128 128 128 128 128 128 128 128 
128 128 128 128 128 128 128 128 128 
128 128 128 128 128 128 128 128 128 
128 128 128 128 128 128 128 128 128 
128 128 128 128 128 128 128 128 128 
128 128 128 128 128 128 128 128 128 
128 128 128 128 128 128 128 128 128 
128 128 128 128 128 128 128 128 128 
128 128 128 128 128 128 128 128 128 
128 128 128 128 128 128 128 128 128 
128 128 128 128 128 128 128 128 128 
128 128 128 128 128 128 128 128 128 
128 128 128 128 128 128 128 128 128 
128 128 128 128 128 128 128 128 128 
128 128 128 128 128 128 128 128 128 
128 128 128 128 128 128 128 128 128 
128 128 128 128 128 128 128 128 128 
128 128 128 128 128 128 128 128 128 
128 128 128 128 128 128 128 128 128 
128 128 128 128 128 128 128 128 128 
128 128 128 128 128 128 128 128 128 
128 128 128 128 128 128 128 128 128 
128 128 128 128 128 128 128 128 128 
128 128 128 128 128 128 128 128 128 
128 128 128 128 128 128 128 128 128 
128 128 128 128 128 128 128 128 128 
128 128 128 128 128 128 128 128 128 
128 128 128 128 128 128 128 128 128 
128 128 128 128 128 128 128 128 128 
128 128 128 128 128 128 128 128 128 
128 128 128 128 128 128 128 128 128 
128 128 128 128 128 128 128 128 128 
128 128 128 128 128 128 128 128 128 
128 128 128 128 128 128 128 128 128 
128 128 128 128 128 128 128 128 128 
128 128 128 128 128 128 128 128 128 
128 128 128 128 128 128 128 128 128 
128 128 128 128 128 128 128 128 128 
128 128 128 128 128 128 128 128 128 
128 128 128 128 128 128 128 128 128 
128 128 128 128 128 128 128 128 128 
128 128 128 128 128 128 128 128 128 
128 128 128 128 128 128 128 128 128 
128 128 128 128 128 128 128 128 128 
128 128 128 128 128 128 128 128 128 
128 128 128 128 128 128 128 128 128 
128 128 128 128 128 128 128 128 128 
128 128 128 128 128 128 128 128 128 
128 128 128 128 128 128 128 128 128 
128 128 128 128 128 128 128 128 128 
128 128 128 128 128 128 128 128 128 
128 128 128 128 128 128 128 128 128 
128 128 128 128 128 128 128 128 128 
128 128 128 128 128 128 128 128 128 
128 128 128 128 128 128 128 128 128 
128 128 128 128 128 128 128 128 128 
128 128 128 128 128 128 128 128 128 
128 128 128 128 128 128 128 128 128 
128 128 128 128 128 128 128 128 128 
128 128 128 128 128 128 128 128 128 
128 128 128 128 128 128 128 128 128 
128 128 128 128 128 128 128 128 128 
128 128 128 128 128 128 128 128 128 
128 128 128 128 128 128 128 128 128 
128 128 128 128 128 128 128 128 128 
128 128 128 128 128 128 128 128 128 
128 128 128 128 128 128 128 128 128 
128 128 128 128 128 128 128 128 128 
128 128 128 128 128 128 128 128 128 
128 128 128 128 128 128 128 128 128 
128 128 128 128 128 128 128 128 128 
128 128 128 128 128 128 128 128 128 
128 128 128 128 128 128 128 128 128 
128 128 128 128 128 128 128 128 128 
128 128 128 128 128 128 128 128 128 
128 128 128 128 128 128 128 128 128 
128 128 128 128 128 128 128 128 128 
128 128 128 128 128 128 128 128 128 
128 128 128 128 128 128 128 128 128 
128 128 128 128 128 128 128 128 128 
128 128 128 128 128 128 128 128 128 
128 128 128 128 128 128 128 128 128 
128 128 128 128 128 128 128 128 128 
128 128 128 128 128 128 128 128 128 
128 128 128 128 128 128 128 128 128 
128 128 128 128 128 128 128 128 128 
128 128 128 128 128 128 128 128 128 
128 128 128 128 128 128 128 128 128 
128 128 128 128 128 128 128 128 128 
128 128 128 128 128 128 128 128 128 
128 128 128 128 128 128 128 128 128 
128 128 128 128 128 128 128 128 128 
128 128 128 128 128 128 128 128 128 
128 128 128 128 128 128 128 128 128 
128 128 128 128 128 128 128 128 128 
128 128 128 128 128 128 128 128 128 
128 128 128 128 128 128 128 128 128 
128 128 128 128 128 128 128 128 128 
128 128 128 128 128 128 128 128 128 
128 128 128 128 128 128 128 128 128 
128 128 128 128 128 128 128 128 128 
128 128 128 128 128 128 128 128 128 
128 128 128 128 128 128 128 128 128 
128 128 128 128 128 128 128 128 128 
128 128 128 128 128 128 128 128 128 
128 128 128 128 128 128 128 128 128 
128 128 128 128 128 128 128 128 128 
128 128 128 128 128 128 128 128 128 
128 128 128 128 128 128 128 128 128 
128 128 128 128 128 128 128 128 128 
128 128 128 128 128 128 128 128 128 
128 128 128 128 128 128 128 128 128 
128 128 128 128 128 128 128 128 128 
128 128 128 128 128 128 128 128 128 
128 128 128 128 128 128 128 128 128 
128 128 128 128 128 128 128 128 128 
128 128 128 128 128 128 128 128 128 
128 128 128 128 128 128 128 128 128 
128 128 128 128 128 128 128 128 128 
128 128 128 128 128 128 128 128 128 
128 128 128 128 128 128 128 128 128 
128 128 128 128 128 128 128 128 128 
128 128 128 128 128 128 128 128 128 
128 128 128 128 128 128 128 128 128 
128 128 128 128 128 128 128 128 128 
128 128 128 128 128 128 128 128 128 
128 128 128 128 128 128 128 128 128 
128 128 128 128 128 128 128 128 128 
128 128 128 128 128 128 128 128 128 
128 128 128 128 128 128 128 128 128 
128 128 128 128 128 128 128 128 128 
128 128 128 128 128 128 128 128 128 
128 128 128 128 128 128 128 128 128 
128 128 128 128 128 128 128 128 128 
128 128 128 128 128 128 128 128 128 
128 128 128 128 128 128 128 128 128 
128 128 128 128 128 128 128 128 128 
128 128 128 128 128 128 128 128 128 
128 128 128 128 128 128 128 128 128 
128 128 128 128 128 128 128 128 128 
128 128 128 128 128 128 128 128 128 
128 128 128 128 128 128 128 128 128 
128 128 128 128 128 128 128 128 128 
128 128 128 128 128 128 128 128 128 
128 128 128 128 128 128 128 128 128 
128 128 128 128 128 128 128 128 128 
128 128 128 128 128 128 128 128 128 
128 128 128 128 128 128 128 128 128 
128 128 128 128 128 128 128 128 128 
128 128 128 128 128 128 128 128 128 
128 128 128 128 128 128 128 128 128 
128 128 128 128 128 128 128 128 128 
128 128 128 128 128 128 128 128 128 
128 128 128 128 128 128 128 128 128 
128 128 128 128 128 128 128 128 128 
128 128 128 128 128 128 128 128 128 
128 128 128 128 128 128 128 128 128 
128 128 128 128 128 128 128 128 128 
128 128 128 128 128 128 128 128 128 
128 128 128 128 128 128 128 128 128 
128 128 128 128 128 128 128 128 128 
128 128 128 128 128 128 128 128 128 
128 128 128 128 128 128 128 128 128 
128 128 128 128 128 128 128 128 128 
128 128 128 128 128 128 128 128 128 
128 128 128 128 128 128 128 128 128 
128 128 128 128 128 128 128 128 128 
128 128 128 128 128 128 128 128 128 
128 128 128 128 128 128 128 128 128 
128 128 128 128 128 128 128 128 128 
128 128 128 128 128 128 128 128 128 
128 128 128 128 128 128 128 128 128 
128 128 128 128 128 128 128 128 128 
128 128 128 128 128 128 128 128 128 
128 128 128 128 128 128 128 128 128 
128 128 128 128 128 128 128 128 128 
128 128 128 128 128 128 128 128 128 
128 128 128 128 128 128 128 128 128 
128 128 128 128 128 128 128 128 128 
128 128 128 128 128 128 128 128 128 
128 128 128 128 128 128 128 128 128 
128 128 128 128 128 128 128 128 128 
128 128 128 128 128 128 128 128 128 
128 128 128 128 128 128 128 128 128 
128 128 128 128 128 128 128 128 128 
128 128 128 128 128 128 128 128 128 
128 128 128 128 128 128 128 128 128 
128 128 128 128 128 128 128 128 128 
128 128 128 128 128 128 128 128 128 
128 128 128 128 128 128 128 128 128 
128 128 128 128 128 128 128 128 128 
128 128 128 128 128 128 128 128 128 
128 128 128 128 128 128 128 128 128 
128 128 128 128 128 128 128 128 128 
128 128 128 128 128 128 128 128 128 
128 128 128 128 128 128 128 128 128 
128 128 128 128 128 128 128 128 128 
128 128 128 128 128 128 128 128 128 
128 128 128 128 128 128 128 128 128 
128 128 128 128 128 128 128 128 128 
128 128 128 128 128 128 128 128 128 
128 128 128 128 128 128 128 128 128 
128 128 128 128 128 128 128 128 128 
128 128 128 128 128 128 128 128 128 
128 128 128 128 128 128 128 128 128 
128 128 128 128 128 128 128 128 128 
128 128 128 128 128 128 128 128 128 
128 128 128 128 128 128 128 128 128 
128 128 128 128 128 128 128 128 128 
128 128 128 128 128 128 128 128 128 
128 128 128 128 128 128 128 128 128 
128 128 128 128 128 128 128 128 128 
128 128 128 128 128 128 128 128 128 
128 128 128 128 128 128 128 128 128 
128 128 128 128 128 128 128 128 128 
128 128 128 128 128 128 128 128 128 
128 128 128 128 128 128 128 128 128 
128 128 128 128 128 128 128 128 128 
128 128 128 128 128 128 128 128 128 
128 128 128 128 128 128 128 128 128 
128 128 128 128 128 128 128 128 128 
128 128 128 128 128 128 128 128 128 
128 128 128 128 128 128 128 128 128 
128 128 128 128 128 128 128 128 128 
128 128 128 128 128 128 128 128 128 
128 128 128 128 128 128 128 128 128 
128 128 128 128 128 128 128 128 128 
128 128 128 128 128 128 128 128 128 
128 128 128 128 128 128 128 128 128 
128 128 128 128 128 128 128 128 128 
128 128 128 128 128 128 128 128 128 
128 128 128 128 128 128 128 128 128 
128 128 128 128 128 128 128 128 128 
128 128 128 128 128 128 128 128 128 
128 128 128 128 128 128 128 128 128 
128 128 128 128 128 128 128 128 128 
128 128 128 128 128 128 128 128 128 
128 128 128 128 128 128 128 128 128 
128 128 128 128 128 128 128 128 128 
128 128 128 128 128 128 128 128 128 
128 128 128 128 128 128 128 128 128 
128 128 128 128 128 128 128 128 128 
128 128 128 128 128 128 128 128 128 
128 128 128 128 128 128 128 128 128 
128 128 128 128 128 128 128 128 128 
128 128 128 128 128 128 128 128 128 
128 128 128 128 128 128 128 128 128 
128 128 128 128 128 128 128 128 128 
128 128 128 128 128 128 128 128 128 
128 128 128 128 128 128 128 128 128 
128 128 128 128 128 128 128 128 128 
128 128 128 128 128 128 128 128 128 
128 128 128 128 128 128 128 128 128 
128 128 128 128 128 128 128 128 128 
128 128 128 128 128 128 128 128 128 
128 128 128 128 128 128 128 128 128 
128 128 128 128 128 128 128 128 128 
128 128 128 128 128 128 128 128 128 
128 128 128 128 128 128 128 128 128 
128 128 128 128 128 128 128 128 128 
128 128 128 128 128 128 128 128 128 
128 128 128 128 128 128 128 128 128 
128 128 128 128 128 128 128 128 128 
128 128 128 128 128 128 128 128 128 
128 128 128 128 128 128 128 128 128 
128 128 128 128 128 128 128 128 128 
128 128 128 128 128 128 128 128 128 
128 128 128 128 128 128 128 128 128 
128 128 128 128 128 128 128 128 128 
128 128 128 128 128 128 128 128 128 
128 128 128 128 128 128 128 128 128 
128 128 128 128 128 128 128 128 128 
128 128 128 128 128 128 128 128 128 
128 128 128 128 128 128 128 128 128 
128 128 128 128 128 128 128 128 128 
128 128 128 128 128 128 128 128 128 
128 128 128 128 128 128 128 128 128 
128 128 128 128 128 128 128 128 128 
128 128 128 128 128 128 128 128 128 
128 128 128 128 128 128 128 128 128 
128 128 128 128 128 128 128 128 128 
128 128 128 128 128 128 128 128 128 
128 128 128 128 128 128 128 128 128 
128 128 128 128 128 128 128 128 128 
128 128 128 128 128 128 128 128 128 
128 128 128 128 128 128 128 128 128 
128 128 128 128 128 128 128 128 128 
128 128 128 128 128 128 128 128 128 
128 128 128 128 128 128 128 128 128 
128 128 128 128 128 128 128 128 128 
128 128 128 128 128 128 128 128 128 
128 128 128 128 128 128 128 128 128 
128 128 128 128 128 128 128 128 128 
128 128 128 128 128 128 128 128 128 
128 128 128 128 128 128 128 128 128 
128 128 128 128 128 128 128 128 128 
128 128 128 128 128 128 128 128 128 
128 128 128 128 128 128 128 128 128 
128 128 128 128 128 128 128 128 128 
128 128 128 128 128 128 128 128 128 
128 128 128 128 128 128 128 128 128 
128 128 128 128 128 128 128 128 128 
128 128 128 128 128 128 128 128 128 
128 128 128 128 128 128 128 128 128 
128 128 128 128 128 128 128 128 128 
128 128 128 128 128 128 128 128 128 
128 128 128 128 128 128 128 128 128 
128 128 128 128 128 128 128 128 128 
128 128 128 128 128 128 128 128 128 
128 128 128 128 128 128 128 128 128 
128 128 128 128 128 128 128 128 128 
128 128 128 128 128 128 128 128 128 
128 128 128 128 128 128 128 128 128 
128 128 128 128 128 128 128 128 128 
128 128 128 128 128 128 128 128 128 
128 128 128 128 128 128 128 128 128 
128 128 128 128 128 128 128 128 128 
128 128 128 128 128 128 128 128 128 
128 128 128 128 128 128 128 128 128 
128 128 128 128 128 128 128 128 128 
128 128 128 128 128 128 128 128 128 
128 128 128 128 128 128 128 128 128 
128 128 128 128 128 128 128 128 128 
128 128 128 128 128 128 128 128 128 
128 128 128 128 128 128 128 128 128 
128 128 128 128 128 128 128 128 128 
128 128 128 128 128 128 128 128 128 
128 128 128 128 128 128 128 128 128 
128 128 128 128 128 128 128 128 128 
128 128 128 128 128 128 128 128 128 
128 128 128 128 128 128 128 128 128 
128 128 128 128 128 128 128 128 128 
128 128 128 128 128 128 128 128 128 
128 128 128 128 128 128 128 128 128 
128 128 128 128 128 128 128 128 128 
128 128 128 128 128 128 128 128 128 
128 128 128 128 128 128 128 128 128 
128 128 128 128 128 128 128 128 128 
128 128 128 128 128 128 128 128 128 
128 128 128 128 128 128 128 128 128 
128 128 128 128 128 128 128 128 128 
128 128 128 128 128 128 128 128 128 
128 128 128 128 128 128 128 128 128 
128 128 128 128 128 128 128 128 128 
128 128 128 128 128 128 128 128 128 
128 128 128 128 128 128 128 128 128 
128 128 128 128 128 128 128 128 128 
128 128 128 128 128 128 128 128 128 
128 128 128 128 128 128 128 128 128 
128 128 128 128 128 128 128 128 128 
128 128 128 128 128 128 128 128 128 
128 128 128 128 128 128 128 128 128 
128 128 128 128 128 128 128 128 128 
128 128 128 128 128 128 128 128 128 
128 128 128 128 128 128 128 128 128 
128 128 128 128 128 128 128 128 128 
128 128 128 128 128 128 128 128 128 
128 128 128 128 128 128 128 128 128 
128 128 128 128 128 128 128 128 128 
128 128 128 128 128 128 128 128 128 
128 128 128 128 128 128 128 128 128 
128 128 128 128 128 128 128 128 128 
128 128 128 128 128 128 128 128 128 
128 128 128 128 128 128 128 128 128 
128 128 128 128 128 128 128 128 128 
128 128 128 128 128 128 128 128 128 
128 128 128 128 128 128 128 128 128 
128 128 128 128 128 128 128 128 128 
128 128 128 128 128 128 128 128 128 
128 128 128 128 128 128 128 128 128 
128 128 128 128 128 128 128 128 128 
128 128 128 128 128 128 128 128 128 
128 128 128 128 128 128 128 128 128 
128 128 128 128 128 128 128 128 128 
128 128 128 128 128 128 128 128 128 
128 128 128 128 128 128 128 128 128 
128 128 128 128 128 128 128 128 128 
128 128 128 128 128 128 128 128 128 
128 128 128 128 128 128 128 128 128 