# vtk DataFile Version 3.0
vtk output
ASCII
DATASET UNSTRUCTURED_GRID
POINTS 27409 float
68.4919 -71.8123 41.3238 68.4919 -70.9307 41.3238 68.0511 -71.3715 41.7646 
68.9327 -71.3715 41.7646 67.6103 -71.8123 38.6791 67.6103 -70.9307 38.6791 
67.1695 -71.3715 38.2383 67.1695 -71.3715 39.1199 67.1695 -70.4899 39.1199 
66.7288 -70.9307 39.5607 66.7288 -70.9307 38.6791 68.9327 -70.4899 40.883 
68.9327 -71.3715 40.883 69.3735 -70.9307 41.3238 67.1695 -72.2531 40.0015 
67.1695 -72.2531 40.883 67.6103 -72.6938 40.4423 67.6103 -71.8123 40.4423 
67.1695 -72.2531 38.2383 67.1695 -72.2531 39.1199 67.6103 -72.6938 38.6791 
69.8143 -69.6083 36.4752 68.9327 -69.6083 36.4752 69.3735 -70.0491 36.0344 
69.3735 -70.0491 36.9159 69.8143 -70.4899 36.4752 70.2551 -70.0491 36.9159 
69.3735 -68.2859 40.4423 70.2551 -68.2859 40.4423 69.8143 -67.8452 40.0015 
69.8143 -67.8452 40.883 69.3735 -68.2859 38.6791 70.2551 -68.2859 38.6791 
69.8143 -67.8452 38.2383 69.8143 -67.8452 39.1199 69.8143 -68.7267 40.0015 
61.8801 -27.2925 39.1199 62.7617 -27.2925 39.1199 62.3209 -27.7333 39.5607 
62.3209 -27.7333 38.6791 64.5248 -27.2925 39.1199 63.6432 -27.2925 39.1199 
64.084 -27.7333 38.6791 64.084 -27.7333 39.5607 62.7617 -28.1741 39.1199 
61.8801 -28.1741 39.1199 62.3209 -28.6149 39.5607 63.2024 -28.6149 39.5607 
62.7617 -29.0557 40.0015 62.7617 -29.0557 39.1199 61.8801 -29.0557 39.1199 
62.3209 -29.4965 39.5607 62.3209 -29.4965 38.6791 63.2024 -30.3781 39.5607 
62.3209 -30.3781 39.5607 62.7617 -29.9373 39.1199 62.7617 -30.8188 39.1199 
61.8801 -29.9373 39.1199 62.3209 -30.3781 38.6791 65.8472 -27.7333 38.6791 
65.8472 -27.7333 37.7975 66.288 -28.1741 38.2383 65.4064 -28.1741 38.2383 
65.4064 -28.1741 37.3567 65.8472 -28.6149 37.7975 64.9656 -28.6149 37.7975 
66.288 -28.1741 37.3567 66.7288 -28.6149 37.7975 64.084 -27.7333 37.7975 
64.5248 -28.1741 38.2383 63.6432 -28.1741 38.2383 63.6432 -28.1741 37.3567 
64.084 -28.6149 37.7975 63.2024 -28.6149 37.7975 64.5248 -28.1741 37.3567 
64.9656 -27.7333 37.7975 64.9656 -26.8517 37.7975 64.5248 -27.2925 37.3567 
64.5248 -27.2925 38.2383 64.9656 -32.1412 39.5607 64.9656 -32.1412 38.6791 
65.4064 -31.7004 39.1199 65.4064 -32.582 39.1199 65.4064 -31.7004 38.2383 
65.8472 -32.1412 38.6791 65.8472 -31.2596 38.6791 64.5248 -31.7004 39.1199 
64.9656 -31.2596 38.6791 64.5248 -31.7004 38.2383 64.084 -31.2596 38.6791 
64.9656 -30.3781 37.7975 65.8472 -30.3781 37.7975 65.4064 -29.9373 38.2383 
65.4064 -30.8188 38.2383 66.288 -29.9373 38.2383 65.8472 -29.4965 38.6791 
65.8472 -30.3781 38.6791 65.8472 -29.4965 37.7975 66.288 -29.0557 38.2383 
65.4064 -29.0557 38.2383 65.4064 -29.0557 37.3567 64.9656 -29.4965 37.7975 
64.5248 -29.9373 37.3567 64.5248 -29.9373 38.2383 64.5248 -29.0557 38.2383 
64.5248 -29.0557 37.3567 64.084 -29.4965 37.7975 64.084 -29.4965 38.6791 
65.4064 -29.9373 37.3567 63.6432 -29.9373 38.2383 63.6432 -29.0557 38.2383 
63.6432 -29.9373 37.3567 63.2024 -30.3781 37.7975 63.2024 -29.4965 37.7975 
63.6432 -29.0557 37.3567 63.6432 -27.2925 38.2383 63.6432 -27.2925 37.3567 
63.2024 -27.7333 37.7975 63.2024 -26.8517 37.7975 64.084 -26.8517 37.7975 
63.2024 -26.8517 38.6791 63.6432 -26.4109 38.2383 64.084 -26.8517 38.6791 
61.4393 -26.8517 37.7975 60.5577 -26.8517 37.7975 60.9985 -27.2925 37.3567 
60.9985 -27.2925 38.2383 60.1169 -27.2925 38.2383 60.5577 -27.7333 37.7975 
60.5577 -27.7333 38.6791 62.3209 -27.7333 37.7975 62.7617 -28.1741 38.2383 
61.8801 -28.1741 38.2383 62.7617 -28.1741 37.3567 62.3209 -28.6149 37.7975 
61.8801 -28.1741 37.3567 61.4393 -28.6149 37.7975 61.4393 -27.7333 37.7975 
60.9985 -28.1741 38.2383 62.3209 -26.8517 37.7975 62.7617 -27.2925 38.2383 
62.7617 -27.2925 37.3567 61.8801 -27.2925 38.2383 72.0182 -30.3781 39.5607 
71.1367 -30.3781 39.5607 71.5774 -30.8188 40.0015 71.5774 -29.9373 40.0015 
70.2551 -30.3781 39.5607 70.6959 -29.9373 40.0015 70.6959 -30.8188 40.0015 
71.1367 -29.4965 40.4423 71.1367 -30.3781 40.4423 68.4919 -30.3781 39.5607 
68.4919 -31.2596 39.5607 68.0511 -30.8188 40.0015 68.0511 -30.8188 39.1199 
68.0511 -31.7004 40.0015 67.6103 -31.2596 39.5607 67.6103 -31.2596 40.4423 
67.1695 -31.7004 40.0015 72.0182 -28.6149 39.5607 72.0182 -28.6149 38.6791 
72.459 -28.1741 39.1199 72.459 -29.0557 39.1199 72.459 -28.1741 38.2383 
72.8998 -28.6149 38.6791 72.8998 -27.7333 38.6791 71.5774 -29.0557 39.1199 
71.5774 -28.1741 39.1199 71.5774 -28.1741 38.2383 71.1367 -28.6149 38.6791 
71.1367 -27.7333 38.6791 71.5774 -29.0557 38.2383 71.1367 -29.4965 38.6791 
67.6103 -27.7333 38.6791 67.6103 -27.7333 37.7975 68.0511 -28.1741 38.2383 
67.1695 -28.1741 38.2383 68.0511 -28.1741 37.3567 67.6103 -28.6149 37.7975 
68.4919 -28.6149 37.7975 67.1695 -28.1741 37.3567 69.3735 -27.7333 38.6791 
69.3735 -27.7333 37.7975 69.8143 -28.1741 38.2383 68.9327 -28.1741 38.2383 
68.9327 -28.1741 37.3567 69.3735 -28.6149 37.7975 69.8143 -28.1741 37.3567 
70.2551 -28.6149 37.7975 68.4919 -26.8517 37.7975 69.3735 -26.8517 37.7975 
68.9327 -27.2925 38.2383 68.9327 -27.2925 37.3567 69.8143 -27.2925 38.2383 
68.4919 -25.9702 37.7975 68.9327 -26.4109 38.2383 68.9327 -26.4109 37.3567 
68.9327 -25.5294 38.2383 69.3735 -25.9702 37.7975 69.3735 -25.9702 38.6791 
66.7288 -26.8517 37.7975 66.7288 -26.8517 36.9159 67.1695 -27.2925 37.3567 
66.288 -27.2925 37.3567 74.2222 -29.0557 40.883 73.3406 -29.0557 40.883 
73.7814 -29.4965 41.3238 73.7814 -28.6149 41.3238 73.3406 -29.0557 39.1199 
74.2222 -29.0557 39.1199 73.7814 -28.6149 38.6791 73.7814 -28.6149 39.5607 
73.7814 -29.4965 39.5607 74.2222 -29.0557 40.0015 73.3406 -29.0557 40.0015 
64.9656 -25.0886 37.7975 64.9656 -25.0886 38.6791 64.5248 -25.5294 38.2383 
65.4064 -25.5294 38.2383 65.4064 -25.5294 39.1199 64.9656 -25.9702 38.6791 
65.8472 -25.9702 38.6791 65.8472 -24.207 38.6791 65.8472 -24.207 37.7975 
66.288 -24.6478 38.2383 65.4064 -24.6478 38.2383 65.4064 -24.6478 37.3567 
65.8472 -25.0886 37.7975 66.288 -24.6478 37.3567 66.7288 -25.0886 37.7975 
68.4919 -25.0886 39.5607 68.4919 -25.0886 38.6791 68.9327 -25.5294 39.1199 
68.0511 -25.5294 39.1199 68.0511 -25.5294 38.2383 67.6103 -25.9702 38.6791 
68.4919 -25.9702 38.6791 68.9327 -24.6478 39.1199 69.3735 -25.0886 38.6791 
68.0511 -24.6478 39.1199 67.6103 -25.0886 38.6791 56.1498 -69.1675 46.6133 
55.2682 -69.1675 46.6133 55.709 -69.6083 46.1725 55.709 -69.6083 47.0541 
54.8274 -69.6083 47.0541 55.2682 -70.0491 47.4949 55.2682 -70.0491 46.6133 
57.0314 -68.2859 45.7317 57.0314 -68.2859 44.8502 56.5906 -68.7267 45.2909 
56.5906 -67.8452 45.2909 56.5906 -68.7267 44.4094 56.1498 -68.2859 44.8502 
56.1498 -69.1675 44.8502 56.1498 -69.1675 45.7317 56.5906 -69.6083 46.1725 
61.8801 -72.2531 48.8173 62.7617 -72.2531 48.8173 62.3209 -71.8123 49.258 
62.3209 -72.6938 49.258 60.9985 -71.3715 43.5278 60.1169 -71.3715 43.5278 
60.5577 -71.8123 43.9686 60.5577 -70.9307 43.9686 60.9985 -70.4899 43.5278 
60.1169 -70.4899 43.5278 60.5577 -70.0491 43.9686 60.5577 -70.9307 43.087 
68.4919 -70.9307 48.3765 68.4919 -71.8123 48.3765 68.0511 -71.3715 47.9357 
68.9327 -71.3715 47.9357 68.0511 -72.2531 47.9357 68.4919 -71.8123 47.4949 
67.6103 -71.8123 47.4949 68.4919 -70.9307 46.6133 68.4919 -71.8123 46.6133 
68.0511 -71.3715 47.0541 68.0511 -71.3715 46.1725 68.0511 -72.2531 47.0541 
67.6103 -71.8123 46.6133 68.9327 -71.3715 46.1725 68.9327 -71.3715 47.0541 
69.3735 -70.9307 46.6133 66.288 -72.2531 47.0541 66.288 -72.2531 47.9357 
65.8472 -71.8123 47.4949 65.8472 -72.6938 47.4949 67.1695 -72.2531 47.0541 
67.1695 -72.2531 47.9357 67.6103 -72.6938 47.4949 72.0182 -69.1675 44.8502 
71.1367 -69.1675 44.8502 71.5774 -68.7267 45.2909 71.5774 -68.7267 44.4094 
70.2551 -69.1675 44.8502 70.6959 -68.7267 44.4094 70.6959 -68.7267 45.2909 
71.1367 -68.2859 44.8502 68.4919 -70.9307 43.087 69.3735 -70.9307 43.087 
68.9327 -70.4899 43.5278 68.9327 -71.3715 43.5278 69.8143 -67.8452 43.5278 
68.9327 -67.8452 43.5278 69.3735 -68.2859 43.9686 69.3735 -67.4044 43.9686 
69.8143 -68.7267 42.6462 69.8143 -68.7267 41.7646 69.3735 -68.2859 42.2054 
70.2551 -68.2859 42.2054 69.8143 -67.8452 41.7646 69.8143 -67.8452 42.6462 
70.2551 -68.2859 43.9686 69.8143 -67.8452 44.4094 69.8143 -68.7267 43.5278 
69.8143 -68.7267 44.4094 68.9327 -67.8452 44.4094 68.9327 -67.8452 41.7646 
68.9327 -67.8452 42.6462 69.3735 -67.4044 42.2054 72.0182 -69.1675 46.6133 
72.8998 -69.1675 46.6133 72.459 -69.6083 47.0541 72.459 -69.6083 46.1725 
73.3406 -69.6083 47.0541 72.8998 -70.0491 47.4949 72.8998 -70.0491 46.6133 
72.0182 -70.0491 46.6133 72.459 -70.4899 47.0541 54.8274 -66.082 48.8173 
55.709 -66.082 48.8173 55.2682 -65.6412 49.258 55.2682 -66.5228 49.258 
53.0643 -68.7267 47.0541 53.0643 -67.8452 47.0541 53.5051 -68.2859 47.4949 
53.5051 -68.2859 46.6133 53.9459 -67.8452 47.0541 53.9459 -68.7267 47.0541 
55.2682 -67.4044 45.7317 55.2682 -68.2859 45.7317 55.709 -67.8452 45.2909 
55.709 -67.8452 46.1725 55.709 -66.9636 46.1725 56.1498 -67.4044 45.7317 
56.1498 -67.4044 46.6133 55.2682 -67.4044 46.6133 54.8274 -67.8452 46.1725 
52.1827 -66.9636 47.9357 53.0643 -66.9636 47.9357 52.6235 -66.5228 48.3765 
52.6235 -67.4044 48.3765 62.3209 -64.7596 45.7317 62.3209 -63.8781 45.7317 
62.7617 -64.3188 45.2909 61.8801 -64.3188 45.2909 62.7617 -63.4373 45.2909 
62.3209 -63.8781 44.8502 63.2024 -63.8781 44.8502 64.5248 -65.2004 46.1725 
64.5248 -64.3188 46.1725 64.084 -64.7596 45.7317 64.084 -64.7596 46.6133 
63.6432 -64.3188 46.1725 60.9985 -66.082 47.0541 60.9985 -66.9636 47.0541 
60.5577 -66.5228 47.4949 60.5577 -66.5228 46.6133 60.5577 -68.2859 45.7317 
60.5577 -67.4044 45.7317 60.1169 -67.8452 45.2909 60.1169 -67.8452 46.1725 
59.2353 -66.082 47.0541 59.2353 -66.082 47.9357 58.7945 -65.6412 47.4949 
58.7945 -66.5228 47.4949 63.6432 -64.3188 43.5278 64.5248 -64.3188 43.5278 
64.084 -63.8781 43.9686 64.084 -64.7596 43.9686 64.084 -64.7596 43.087 
63.6432 -64.3188 44.4094 64.5248 -64.3188 44.4094 63.6432 -63.4373 44.4094 
64.084 -63.8781 44.8502 64.5248 -63.4373 44.4094 64.9656 -63.8781 44.8502 
64.9656 -63.8781 43.9686 65.4064 -64.3188 44.4094 64.9656 -64.7596 43.9686 
[...]
CELL_DATA 102408
FIELD FieldData 1
Label 1 102408 float
128 128 128 128 128 128 128 128 128 
128 128 128 128 128 128 128 128 128 
128 128 128 128 128 128 128 128 128 
128 128 128 128 128 128 128 128 128 
128 128 128 128 128 128 128 128 128 
128 128 128 128 128 128 128 128 128 
128 128 128 128 128 128 128 128 128 
128 128 128 128 128 128 128 128 128 
128 128 128 128 128 128 128 128 128 
128 128 128 128 128 128 128 128 128 
128 128 128 128 128 128 128 128 128 
128 128 128 128 128 128 128 128 128 
128 128 128 128 128 128 128 128 128 
128 128 128 128 128 128 128 128 128 
128 128 128 128 128 128 128 128 128 
128 128 128 128 128 128 128 128 128 
128 128 128 128 128 128 128 128 128 
128 128 128 128 128 128 128 128 128 
128 128 128 128 128 128 128 128 128 
128 128 128 128 128 128 128 128 128 
128 128 128 128 128 128 128 128 128 
128 128 128 128 128 128 128 128 128 
128 128 128 128 128 128 128 128 128 
128 128 128 128 128 128 128 128 128 
128 128 128 128 128 128 128 128 128 
128 128 128 128 128 128 128 128 128 
128 128 128 128 128 128 128 128 128 
128 128 128 128 128 128 128 128 128 
128 128 128 128 128 128 128 128 128 
128 128 128 128 128 128 128 128 128 
128 128 128 128 128 128 128 128 128 
128 128 128 128 128 128 128 128 128 
128 128 128 128 128 128 128 128 128 
128 128 128 128 128 128 128 128 128 
128 128 128 128 128 128 128 128 128 
128 128 128 128 128 128 128 128 128 
128 128 128 128 128 128 128 128 128 
128 128 128 128 128 128 128 128 128 
128 128 128 128 128 128 128 128 128 
128 128 128 128 128 128 128 128 128 
128 128 128 128 128 128 128 128 128 
128 128 128 128 128 128 128 128 128 
128 128 128 128 128 128 128 128 128 
128 128 128 128 128 128 128 128 128 
128 128 128 128 128 128 128 128 128 
128 128 128 128 128 128 128 128 128 
128 128 128 128 128 128 128 128 128 
128 128 128 128 128 128 128 128 128 
128 128 128 128 128 128 128 128 128 
128 128 128 128 128 128 128 128 128 
128 128 128 128 128 128 128 128 128 
128 128 128 128 128 128 128 128 128 
128 128 128 128 128 128 128 128 128 
128 128 128 128 128 128 128 128 128 
128 128 128 128 128 128 128 128 128 
128 128 128 128 128 128 128 128 128 
128 128 128 128 128 128 128 128 128 
128 128 128 128 128 128 128 128 128 
128 128 128 128 128 128 128 128 128 
128 128 128 128 128 128 128 128 128 
128 128 128 128 128 128 128 128 128 
128 128 128 128 128 128 128 128 128 
128 128 128 128 128 128 128 128 128 
128 128 128 128 128 128 128 128 128 
128 128 128 128 128 128 128 128 128 
128 128 128 128 128 128 128 128 128 
128 128 128 128 128 128 128 128 128 
128 128 128 128 128 128 128 128 128 
128 128 128 128 128 128 128 128 128 
128 128 128 128 128 128 128 128 128 
128 128 128 128 128 128 128 128 128 
128 128 128 128 128 128 128 128 128 
128 128 128 128 128 128 128 128 128 
128 128 128 128 128 128 128 128 128 
128 128 128 128 128 128 128 128 128 
128 128 128 128 128 128 128 128 128 
128 128 128 128 128 128 128 128 128 
128 128 128 128 128 128 128 128 128 
128 128 128 128 128 128 128 128 128 
128 128 128 128 128 128 128 128 128 
128 128 128 128 128 128 128 128 128 
128 128 128 128 128 128 128 128 128 
128 128 128 128 128 128 128 128 128 
128 128 128 128 128 128 128 128 128 
128 128 128 128 128 128 128 128 128 
128 128 128 128 128 128 128 128 128 
128 128 128 128 128 128 128 128 128 
128 128 128 128 128 128 128 128 128 
128 128 128 128 128 128 128 128 128 
128 128 128 128 128 128 128 128 128 
128 128 128 128 128 128 128 128 128 
128 128 128 128 128 128 128 128 128 
128 128 128 128 128 128 128 128 128 
128 128 128 128 128 128 128 128 128 
128 128 128 128 128 128 128 128 128 
128 128 128 128 128 128 128 128 128 
128 128 128 128 128 128 128 128 128 
128 128 128 128 128 128 128 128 128 
128 128 128 128 128 128 128 128 128 
128 128 128 128 128 128 128 128 128 
128 128 128 128 128 128 128 128 128 
128 128 128 128 128 128 128 128 128 
128 128 128 128 128 128 128 128 128 
128 128 128 128 128 128 128 128 128 
128 128 128 128 128 128 128 128 128 
128 128 128 128 128 128 128 128 128 
128 128 128 128 128 128 128 128 128 
128 128 128 128 128 128 128 128 128 
128 128 128 128 128 128 128 128 128 
128 128 128 128 128 128 128 128 128 
128 128 128 128 128 128 128 128 128 
128 128 128 128 128 128 128 128 128 
128 128 128 128 128 128 128 128 128 
128 128 128 128 128 128 128 128 128 
128 128 128 128 128 128 128 128 128 
128 128 128 128 128 128 128 128 128 
128 128 128 128 128 128 128 128 128 
128 128 128 128 128 128 128 128 128 
128 128 128 128 128 128 128 128 128 
128 128 128 128 128 128 128 128 128 
128 128 128 128 128 128 128 128 128 
128 128 128 128 128 128 128 128 128 
128 128 128 128 128 128 128 128 128 
128 128 128 128 128 128 128 128 128 
128 128 128 128 128 128 128 128 128 
128 128 128 128 128 128 128 128 128 
128 128 128 128 128 128 128 128 128 
128 128 128 128 128 128 128 128 128 
128 128 128 128 128 128 128 128 128 
128 128 128 128 128 128 128 128 128 
128 128 128 128 128 128 128 128 128 
128 128 128 128 128 128 128 128 128 
128 128 128 128 128 128 128 128 128 
128 128 128 128 128 128 128 128 128 
128 128 128 128 128 128 128 128 128 
128 128 128 128 128 128 128 128 128 
128 128 128 128 128 128 128 128 128 
128 128 128 128 128 128 128 128 128 
128 128 128 128 128 128 128 128 128 
128 128 128 128 128 128 128 128 128 
128 128 128 128 128 128 128 128 128 
128 128 128 128 128 128 128 128 128 
128 128 128 128 128 128 128 128 128 
128 128 128 128 128 128 128 128 128 
128 128 128 128 128 128 128 128 128 
128 128 128 128 128 128 128 128 128 
128 128 128 128 128 128 128 128 128 
128 128 128 128 128 128 128 128 128 
128 128 128 128 128 128 128 128 128 
128 128 128 128 128 128 128 128 128 
128 128 128 128 128 128 128 128 128 
128 128 128 128 128 128 128 128 128 
128 128 128 128 128 128 128 128 128 
128 128 128 128 128 128 128 128 128 
128 128 128 128 128 128 128 128 128 
128 128 128 128 128 128 128 128 128 
128 128 128 128 128 128 128 128 128 
128 128 128 128 128 128 128 128 128 
128 128 128 128 128 128 128 128 128 
128 128 128 128 128 128 128 128 128 
128 128 128 128 128 128 128 128 128 
128 128 128 128 128 128 128 128 128 
128 128 128 128 128 128 128 128 128 
128 128 128 128 128 128 128 128 128 
128 128 128 128 128 128 128 128 128 
128 128 128 128 128 128 128 128 128 
128 128 128 128 128 128 128 128 128 
128 128 128 128 128 128 128 128 128 
128 128 128 128 128 128 128 128 128 
128 128 128 128 128 128 128 128 128 
128 128 128 128 128 128 128 128 128 
128 128 128 128 128 128 128 128 128 
128 128 128 128 128 128 128 128 128 
128 128 128 128 128 128 128 128 128 
128 128 128 128 128 128 128 128 128 
128 128 128 128 128 128 128 128 128 
128 128 128 128 128 128 128 128 128 
128 128 128 128 128 128 128 128 128 
128 128 128 128 128 128 128 128 128 
128 128 128 128 128 128 128 128 128 
128 128 128 128 128 128 128 128 128 
128 128 128 128 128 128 128 128 128 
128 128 128 128 128 128 128 128 128 
128 128 128 128 128 128 128 128 128 
128 128 128 128 128 128 128 128 128 
128 128 128 128 128 128 128 128 128 
128 128 128 128 128 128 128 128 128 
128 128 128 128 128 128 128 128 128 
128 128 128 128 128 128 128 128 128 
128 128 128 128 128 128 128 128 128 
128 128 128 128 128 128 128 128 128 
128 128 128 128 128 128 128 128 128 
128 128 128 128 128 128 128 128 128 
128 128 128 128 128 128 128 128 128 
128 128 128 128 128 128 128 128 128 
128 128 128 128 128 128 128 128 128 
128 128 128 128 128 128 128 128 128 
128 128 128 128 128 128 128 128 128 
128 128 128 128 128 128 128 128 128 
128 128 128 128 128 128 128 128 128 
128 128 128 128 128 128 128 128 128 
128 128 128 128 128 128 128 128 128 
128 128 128 128 128 128 128 128 128 
128 128 128 128 128 128 128 128 128 
128 128 128 128 128 128 128 128 128 
128 128 128 128 128 128 128 128 128 
128 128 128 128 128 128 128 128 128 
128 128 128 128 128 128 128 128 128 
128 128 128 128 128 128 128 128 128 
128 128 128 128 128 128 128 128 128 
128 128 128 128 128 128 128 128 128 
128 128 128 128 128 128 128 128 128 
128 128 128 128 128 128 128 128 128 
128 128 128 128 128 128 128 128 128 
128 128 128 128 128 128 128 128 128 
128 128 128 128 128 128 128 128 128 
128 128 128 128 128 128 128 128 128 
128 128 128 128 128 128 128 128 128 
128 128 128 128 128 128 128 128 128 
128 128 128 128 128 128 128 128 128 
128 128 128 128 128 128 128 128 128 
128 128 128 128 128 128 128 128 128 
128 128 128 128 128 128 128 128 128 
128 128 128 128 128 128 128 128 128 
128 128 128 128 128 128 128 128 128 
128 128 128 128 128 128 128 128 128 
128 128 128 128 128 128 128 128 128 
128 128 128 128 128 128 128 128 128 
128 128 128 128 128 128 128 128 128 
128 128 128 128 128 128 128 128 128 
128 128 128 128 128 128 128 128 128 
128 128 128 128 128 128 128 128 128 
128 128 128 128 128 128 128 128 128 
128 128 128 128 128 128 128 128 128 
128 128 128 128 128 128 128 128 128 
128 128 128 128 128 128 128 128 128 
128 128 128 128 128 128 128 128 128 
128 128 128 128 128 128 128 128 128 
128 128 128 128 128 128 128 128 128 
128 128 128 128 128 128 128 128 128 
128 128 128 128 128 128 128 128 128 
128 128 128 128 128 128 128 128 128 
128 128 128 128 128 128 128 128 128 
128 128 128 128 128 128 128 128 128 
128 128 128 128 128 128 128 128 128 
128 128 128 128 128 128 128 128 128 
128 128 128 128 128 128 128 128 128 
128 128 128 128 128 128 128 128 128 
128 128 128 128 128 128 128 128 128 
128 128 128 128 128 128 128 128 128 
128 128 128 128 128 128 128 128 128 
128 128 128 128 128 128 128 128 128 
128 128 128 128 128 128 128 128 128 
128 128 128 128 128 128 128 128 128 
128 128 128 128 128 128 128 128 128 
128 128 128 128 128 128 128 128 128 
128 128 128 128 128 128 128 128 128 
128 128 128 128 128 128 128 128 128 
128 128 128 128 128 128 128 128 128 
128 128 128 128 128 128 128 128 128 
128 128 128 128 128 128 128 128 128 
128 128 128 128 128 128 128 128 128 
128 128 128 128 128 128 128 128 128 
128 128 128 128 128 128 128 128 128 
128 128 128 128 128 128 128 128 128 
128 128 128 128 128 128 128 128 128 
128 128 128 128 128 128 128 128 128 
128 128 128 128 128 128 128 128 128 
128 128 128 128 128 128 128 128 128 
128 128 128 128 128 128 128 128 128 
128 128 128 128 128 128 128 128 128 
128 128 128 128 128 128 128 128 128 
128 128 128 128 128 128 128 128 128 
128 128 128 128 128 128 128 128 128 
128 128 128 128 128 128 128 128 128 
128 128 128 128 128 128 128 128 128 
128 128 128 128 128 128 128 128 128 
128 128 128 128 128 128 128 128 128 
128 128 128 128 128 128 128 128 128 
128 128 128 128 128 128 128 128 128 
128 128 128 128 128 128 128 128 128 
128 128 128 128 128 128 128 128 128 
128 128 128 128 128 128 128 128 128 
128 128 128 128 128 128 128 128 128 
128 128 128 128 128 128 128 128 128 
128 128 128 128 128 128 128 128 128 
128 128 128 128 128 128 128 128 128 
128 128 128 128 128 128 128 128 128 
128 128 128 128 128 128 128 128 128 
128 128 128 128 128 128 128 128 128 
128 128 128 128 128 128 128 128 128 
128 128 128 128 128 128 128 128 128 
128 128 128 128 128 128 128 128 128 
128 128 128 128 128 128 128 128 128 
128 128 128 128 128 128 128 128 128 
128 128 128 128 128 128 128 128 128 
128 128 128 128 128 128 128 128 128 
128 128 128 128 128 128 128 128 128 
128 128 128 128 128 128 128 128 128 
128 128 128 128 128 128 128 128 128 
128 128 128 128 128 128 128 128 128 
128 128 128 128 128 128 128 128 128 
128 128 128 128 128 128 128 128 128 
128 128 128 128 128 128 128 128 128 
128 128 128 128 128 128 128 128 128 
128 128 128 128 128 128 128 128 128 
128 128 128 128 128 128 128 128 128 
128 128 128 128 128 128 128 128 128 
128 128 128 128 128 128 128 128 128 
128 128 128 128 128 128 128 128 128 
128 128 128 128 128 128 128 128 128 
128 128 128 128 128 128 128 128 128 
128 128 128 128 128 128 128 128 128 
128 128 128 128 128 128 128 128 128 
128 128 128 128 128 128 128 128 128 
128 128 128 128 128 128 128 128 128 
128 128 128 128 128 128 128 128 128 
128 128 128 128 128 128 128 128 128 
128 128 128 128 128 128 128 128 128 
128 128 128 128 128 128 128 128 128 
128 128 128 128 128 128 128 128 128 
128 128 128 128 128 128 128 128 128 
128 128 128 128 128 128 128 128 128 
128 128 128 128 128 128 128 128 128 
128 128 128 128 128 128 128 128 128 
128 128 128 128 128 128 128 128 128 
128 128 128 128 128 128 128 128 128 
128 128 128 128 128 128 128 128 128 
128 128 128 128 128 128 128 128 128 
128 128 128 128 128 128 128 128 128 
128 128 128 128 128 128 128 128 128 
128 128 128 128 128 128 128 128 128 
128 128 128 128 128 128 128 128 128 
128 128 128 128 128 128 128 128 128 
128 128 128 128 128 128 128 128 128 
128 128 128 128 128 128 128 128 128 
128 128 128 128 128 128 128 128 128 
128 128 128 128 128 128 128 128 128 
128 128 128 128 128 128 128 128 128 
128 128 128 128 128 128 128 128 128 
128 128 128 128 128 128 128 128 128 
128 128 128 128 128 128 128 128 128 
128 128 128 128 128 128 128 128 128 
128 128 128 128 128 128 128 128 128 
128 128 128 128 128 128 128 128 128 
128 128 128 128 128 128 128 128 128 
128 128 128 128 128 128 128 128 128 
128 128 128 128 128 128 128 128 128 
128 128 128 128 128 128 128 128 128 
128 128 128 128 128 128 128 128 128 
128 128 128 128 128 128 128 128 128 
128 128 128 128 128 128 128 128 128 
128 128 128 128 128 128 128 128 128 
128 128 128 128 128 128 128 128 128 
128 128 128 128 128 128 128 128 128 
128 128 128 128 128 128 128 128 128 
128 128 128 128 128 128 128 128 128 
128 128 128 128 128 128 128 128 128 
128 128 128 128 128 128 128 128 128 
128 128 128 128 128 128 128 128 128 
128 128 128 128 128 128 128 128 128 
128 128 128 128 128 128 128 128 128 
128 128 128 128 128 128 128 128 128 
128 128 128 128 128 128 128 128 128 
128 128 128 128 128 128 128 128 128 
128 128 128 128 128 128 128 128 128 
128 128 128 128 128 128 128 128 128 
128 128 128 128 128 128 128 128 128 
128 128 128 128 128 128 128 128 128 
128 128 128 128 128 128 128 128 128 
128 128 128 128 128 128 128 128 128 
128 128 128 128 128 128 128 128 128 
128 128 128 128 128 128 128 128 128 
128 128 128 128 128 128 128 128 128 
128 128 128 128 128 128 128 128 128 
128 128 128 128 128 128 128 128 128 
128 128 128 128 128 128 128 128 128 
128 128 128 128 128 128 128 128 128 
128 128 128 128 128 128 128 128 128 
128 128 128 128 128 128 128 128 128 
128 128 128 128 128 128 128 128 128 
128 128 128 128 128 128 128 128 128 
128 128 128 128 128 128 128 128 128 
128 128 128 128 128 128 128 128 128 
128 128 128 128 128 128 128 128 128 
128 128 128 128 128 128 128 128 128 
128 128 128 128 128 128 128 128 128 
128 128 128 128 128 128 128 128 128 
128 128 128 128 128 128 128 128 128 
128 128 128 128 128 128 128 128 128 
128 128 128 128 128 128 128 128 128 
128 128 128 128 128 128 128 128 128 
128 128 128 128 128 128 128 128 128 
128 128 128 128 128 128 128 128 128 
128 128 128 128 128 128 128 128 128 
128 128 128 128 128 128 128 128 128 
128 128 128 128 128 128 128 128 128 
128 128 128 128 128 128 128 128 128 
128 128 128 128 128 128 128 128 128 
128 128 128 128 128 128 128 128 128 
128 128 128 128 128 128 128 128 128 
128 128 128 128 128 128 128 128 128 
128 128 128 128 128 128 128 128 128 
128 128 128 128 128 128 128 128 128 
128 128 128 128 128 128 128 128 128 
128 128 128 128 128 128 128 128 128 
128 128 128 128 128 128 128 128 128 
128 128 128 128 128 128 128 128 128 
128 128 128 128 128 128 128 128 128 
128 128 128 128 128 128 128 128 128 
128 128 128 128 128 128 128 128 128 
128 128 128 128 128 128 128 128 128 
128 128 128 128 128 128 128 128 128 
128 128 128 128 128 128 128 128 128 
128 128 128 128 128 128 128 128 128 
128 128 128 128 128 128 128 128 128 
128 128 128 128 128 128 128 128 128 
128 128 128 128 128 128 128 128 128 
128 128 128 128 128 128 128 128 128 
128 128 128 128 128 128 128 128 128 
128 128 128 128 128 128 128 128 128 
128 128 128 128 128 128 128 128 128 
128 128 128 128 128 128 128 128 128 
128 128 128 128 128 128 128 128 128 
128 128 128 128 128 128 128 128 128 
128 128 128 128 128 128 128 128 128 
128 128 128 128 128 128 128 128 128 
128 128 128 128 128 128 128 128 128 
128 128 128 128 128 128 128 128 128 
128 128 128 128 128 128 128 128 128 
128 128 128 128 128 128 128 128 128 
128 128 128 128 128 128 128 128 128 
128 128 128 128 128 128 128 128 128 
128 128 128 128 128 128 128 128 128 
128 128 128 128 128 128 128 128 128 
128 128 128 128 128 128 128 128 128 
128 128 128 128 128 128 128 128 128 
128 128 128 128 128 128 128 128 128 
128 128 128 128 128 128 128 128 128 
128 128 128 128 128 128 128 128 128 
128 128 128 128 128 128 128 128 128 
128 128 128 128 128 128 128 128 128 
128 128 128 128 128 128 128 128 128 
128 128 128 128 128 128 128 128 128 
128 128 128 128 128 128 128 128 128 
128 128 128 128 128 128 128 128 128 
128 128 128 128 128 128 128 128 128 
128 128 128 128 128 128 128 128 128 
128 128 128 128 128 128 128 128 128 
128 128 128 128 128 128 128 128 128 
128 128 128 128 128 128 128 128 128 
128 128 128 128 128 128 128 128 128 
128 128 128 128 128 128 128 128 128 
128 128 128 128 128 128 128 128 128 
128 128 128 128 128 128 128 128 128 
128 128 128 128 128 128 128 128 128 
128 128 128 128 128 128 128 128 128 
128 128 128 128 128 128 128 128 128 
128 128 128 128 128 128 128 128 128 
128 128 128 128 128 128 128 128 128 
128 128 128 128 128 128 128 128 128 
128 128 128 128 128 128 128 128 128 
128 128 128 128 128 128 128 128 128 
128 128 128 128 128 128 128 128 128 
128 128 128 128 128 128 128 128 128 
128 128 128 128 128 128 128 128 128 
128 128 128 128 128 128 128 128 128 
128 128 128 128 128 128 128 128 128 
128 128 128 128 128 128 128 128 128 
128 128 128 128 128 128 128 128 128 
128 128 128 128 128 128 128 128 128 
128 128 128 128 128 128 128 128 128 
128 128 128 128 128 128 128 128 128 
128 128 128 128 128 128 128 128 128 
128 128 128 128 128 128 128 128 128 
128 128 128 128 128 128 128 128 128 
128 128 128 128 128 128 128 128 128 
128 128 128 128 128 128 128 128 128 
128 128 128 128 128 128 128 128 128 
128 128 128 128 128 128 128 128 128 
128 128 128 128 128 128 128 128 128 
128 128 128 128 128 128 128 128 128 
128 128 128 128 128 128 128 128 128 
128 128 128 128 128 128 128 128 128 
128 128 128 128 128 128 128 128 128 
128 128 128 128 128 128 128 128 128 
128 128 128 128 128 128 128 128 128 
128 128 128 128 128 128 128 128 128 
128 128 128 128 128 128 128 128 128 
128 128 128 128 128 128 128 128 128 
128 128 128 128 128 128 128 128 128 
128 128 128 128 128 128 128 128 128 
128 128 128 128 128 128 128 128 128 
128 128 128 128 128 128 128 128 128 
128 128 128 128 128 128 128 128 128 
128 128 128 128 128 128 128 128 128 
128 128 128 128 128 128 128 128 128 
128 128 128 128 128 128 128 128 128 
128 128 128 128 128 128 128 128 128 
128 128 128 128 128 128 128 128 128 
128 128 128 128 128 128 128 128 128 
128 128 128 128 128 128 128 128 128 
128 128 128 128 128 128 128 128 128 
128 128 128 128 128 128 128 128 128 
128 128 128 128 128 128 128 128 128 
128 128 128 128 128 128 128 128 128 
128 128 128 128 128 128 128 128 128 
128 128 128 128 128 128 128 128 128 
128 128 128 128 128 128 128 128 128 
128 128 128 128 128 128 128 128 128 
128 128 128 128 128 128 128 128 128 
128 128 128 128 128 128 128 128 128 
128 128 128 128 128 128 128 128 128 
128 128 128 128 128 128 128 128 128 
128 128 128 128 128 128 128 128 128 
128 128 128 128 128 128 128 128 128 
128 128 128 128 128 128 128 128 128 
128 128 128 128 128 128 128 128 128 
128 128 128 128 128 128 128 128 128 
128 128 128 128 128 128 128 128 128 
128 128 128 128 128 128 128 128 128 
128 128 128 128 128 128 128 128 128 
128 128 128 128 128 128 128 128 128 
128 128 128 128 128 128 128 128 128 
128 128 128 128 128 128 128 128 128 
128 128 128 128 128 128 128 128 128 
128 128 128 128 128 128 128 128 128 
128 128 128 128 128 128 128 128 128 
128 128 128 128 128 128 128 128 128 
128 128 128 128 128 128 128 128 128 
128 128 128 128 128 128 128 128 128 
128 128 128 128 128 128 128 128 128 
128 128 128 128 128 128 128 128 128 
128 128 128 128 128 128 128 128 128 
128 128 128 128 128 128 128 128 128 
128 128 128 128 128 128 128 128 128 
128 128 128 128 128 128 128 128 128 
128 128 128 128 128 128 128 128 128 
128 128 128 128 128 128 128 128 128 